
     Program PWSCF v.7.4 starts on 10Jun2025 at 14:17:19 

     This program is part of the open-source Quantum ESPRESSO suite
     for quantum simulation of materials; please cite
         "P. Giannozzi et al., J. Phys.:Condens. Matter 21 395502 (2009);
         "P. Giannozzi et al., J. Phys.:Condens. Matter 29 465901 (2017);
         "P. Giannozzi et al., J. Chem. Phys. 152 154105 (2020);
          URL http://www.quantum-espresso.org", 
     in publications or presentations arising from this work. More details at
     http://www.quantum-espresso.org/quote

     Parallel version (MPI & OpenMP), running on       4 processor cores
     Number of MPI processes:                 1
     Threads/MPI process:                     4

     MPI processes distributed on     1 nodes
     205740 MiB available memory on the printing compute node when the environment starts

     Reading input from qe.in

     Current dimensions of program PWSCF are:
     Max number of different atomic species (ntypx) = 10
     Max number of k-points (npk) =  40000
     Max angular momentum in pseudopotentials (lmaxx) =  4
     file Zr.pbe-spn-kjpaw_psl.1.0.0.UPF: wavefunction(s)  4S 4P renormalized

     Subspace diagonalization in iterative solution of the eigenvalue problem:
     a serial algorithm will be used


     G-vector sticks info
     --------------------
     sticks:   dense  smooth     PW     G-vecs:    dense   smooth      PW
     Sum        1003     499    163                28345     9997    1871

     Using Slab Decomposition



     bravais-lattice index     =            4
     lattice parameter (alat)  =       6.0093  a.u.
     unit-cell volume          =     209.5066 (a.u.)^3
     number of atoms/cell      =            3
     number of atomic types    =            2
     number of electrons       =        18.00
     number of Kohn-Sham states=           13
     kinetic-energy cutoff     =      50.0000  Ry
     charge density cutoff     =     400.0000  Ry
     scf convergence threshold =      1.0E-08
     mixing beta               =       0.7000
     number of iterations used =            8  plain     mixing
     Exchange-correlation= SLA  PW   PBX  PBC
                           (   1   4   3   4   0   0   0)

     celldm(1)=   6.009329  celldm(2)=   0.000000  celldm(3)=   1.114780
     celldm(4)=   0.000000  celldm(5)=   0.000000  celldm(6)=   0.000000

     crystal axes: (cart. coord. in units of alat)
               a(1) = (   1.000000   0.000000   0.000000 )  
               a(2) = (  -0.500000   0.866025   0.000000 )  
               a(3) = (   0.000000   0.000000   1.114780 )  

     reciprocal axes: (cart. coord. in units 2 pi/alat)
               b(1) = (  1.000000  0.577350 -0.000000 )  
               b(2) = (  0.000000  1.154701  0.000000 )  
               b(3) = (  0.000000 -0.000000  0.897038 )  


     PseudoPot. # 1 for Zr read from file:
     /home/cganley2/qe-projects/common/pseudopotentials/SSSP_1.3.0_PBE_precision/Zr.pbe-spn-kjpaw_psl.1.0.0.UPF
     MD5 check sum: 83bf7718257ce689f169bc8534fef73a
     Pseudo is Projector augmented-wave + core cor, Zval = 12.0
     Generated using &quot;atomic&quot; code by A. Dal Corso  v.6.2.2
     Shape of augmentation charge: PSQ
     Using radial grid of 1225 points,  6 beta functions with: 
                l(1) =   0
                l(2) =   0
                l(3) =   1
                l(4) =   1
                l(5) =   2
                l(6) =   2
     Q(r) pseudized with 0 coefficients 


     PseudoPot. # 2 for B  read from file:
     /home/cganley2/qe-projects/common/pseudopotentials/SSSP_1.3.0_PBE_precision/B.pbe-n-kjpaw_psl.1.0.0.UPF
     MD5 check sum: 757e44352cacacece234d5873ff275d1
     Pseudo is Projector augmented-wave + core cor, Zval =  3.0
     Generated using &quot;atomic&quot; code by A. Dal Corso  v.6.3
     Shape of augmentation charge: PSQ
     Using radial grid of 1059 points,  4 beta functions with: 
                l(1) =   0
                l(2) =   0
                l(3) =   1
                l(4) =   1
     Q(r) pseudized with 0 coefficients 


     atomic species   valence    mass     pseudopotential
     Zr               12.00    91.22400     Zr( 1.00)
     B                 3.00    10.81000     B ( 1.00)

     No symmetry found



   Cartesian axes

     site n.     atom                  positions (alat units)
         1        Zr     tau(   1) = (   0.0000000   0.0000000   0.0000000  )
         2        B      tau(   2) = (   0.5000000   0.2886751   0.5573899  )
         3        B      tau(   3) = (  -0.0000000   0.5773503   0.5573899  )

     number of k points=   172  Gaussian smearing, width (Ry)=  0.0100

     Number of k-points >= 100: set verbosity='high' to print them.

     Dense  grid:    28345 G-vectors     FFT dimensions: (  40,  40,  45)

     Smooth grid:     9997 G-vectors     FFT dimensions: (  27,  27,  32)

     Estimated max dynamical RAM per process >     151.18 MB

     Initial potential from superposition of free atoms

     starting charge      17.9973, renormalised to      18.0000
     Starting wfcs are   21 randomized atomic wfcs
     Checking if some PAW data can be deallocated... 

     total cpu time spent up to now is        2.6 secs

     per-process dynamical memory:   240.7 Mb

     Self-consistent Calculation

     iteration #  1     ecut=    50.00 Ry     beta= 0.70
     Davidson diagonalization with overlap
     ethr =  1.00E-02,  avg # of iterations =  2.0

     total cpu time spent up to now is        4.3 secs

     total energy              =    -330.24321845 Ry
     estimated scf accuracy    <       0.25197126 Ry

     iteration #  2     ecut=    50.00 Ry     beta= 0.70
     Davidson diagonalization with overlap
     ethr =  1.40E-03,  avg # of iterations =  3.2

     total cpu time spent up to now is        6.3 secs

     total energy              =    -330.29651813 Ry
     estimated scf accuracy    <       0.24797058 Ry

     iteration #  3     ecut=    50.00 Ry     beta= 0.70
     Davidson diagonalization with overlap
     ethr =  1.38E-03,  avg # of iterations =  2.0

     total cpu time spent up to now is        7.9 secs

     total energy              =    -330.35316566 Ry
     estimated scf accuracy    <       0.00096866 Ry

     iteration #  4     ecut=    50.00 Ry     beta= 0.70
     Davidson diagonalization with overlap
     ethr =  5.38E-06,  avg # of iterations =  5.9

     total cpu time spent up to now is       10.5 secs

     total energy              =    -330.35372883 Ry
     estimated scf accuracy    <       0.00056885 Ry

     iteration #  5     ecut=    50.00 Ry     beta= 0.70
     Davidson diagonalization with overlap
     ethr =  3.16E-06,  avg # of iterations =  2.4

     total cpu time spent up to now is       12.2 secs

     total energy              =    -330.35384877 Ry
     estimated scf accuracy    <       0.00000100 Ry

     iteration #  6     ecut=    50.00 Ry     beta= 0.70
     Davidson diagonalization with overlap
     ethr =  5.53E-09,  avg # of iterations =  4.2

     total cpu time spent up to now is       14.4 secs

     total energy              =    -330.35385004 Ry
     estimated scf accuracy    <       0.00000262 Ry

     iteration #  7     ecut=    50.00 Ry     beta= 0.70
     Davidson diagonalization with overlap
     ethr =  5.53E-09,  avg # of iterations =  2.9

     total cpu time spent up to now is       16.3 secs

     End of self-consistent calculation

     Number of k-points >= 100: set verbosity='high' to print the bands.

     the Fermi energy is    15.5668 ev

!    total energy              =    -330.35385056 Ry
     total all-electron energy =     -7297.221518 Ry
     estimated scf accuracy    <          5.5E-09 Ry
     smearing contrib. (-TS)   =      -0.00009770 Ry
     internal energy E=F+TS    =    -330.35375286 Ry

     The total energy is F=E-TS. E is the sum of the following terms:
     one-electron contribution =      -2.05824079 Ry
     hartree contribution      =      12.46708873 Ry
     xc contribution           =     -24.04484581 Ry
     ewald contribution        =     -96.27913793 Ry
     one-center paw contrib.   =    -220.43861706 Ry

     convergence has been achieved in   7 iterations

     Forces acting on atoms (cartesian axes, Ry/au):

     atom    1 type  1   force =     0.00000003    0.00000055   -0.00000066
     atom    2 type  2   force =    -0.00000006   -0.00000010    0.00000021
     atom    3 type  2   force =     0.00000003   -0.00000045    0.00000045

     Total force =     0.000001     Total SCF correction =     0.000003
     SCF correction compared to forces is large: reduce conv_thr to get better values


     Computing stress (Cartesian axis) and pressure

          total   stress  (Ry/bohr**3)                   (kbar)     P=      -14.42
  -0.00010273   0.00000000  -0.00000000          -15.11        0.00       -0.00
   0.00000000  -0.00010274  -0.00000000            0.00      -15.11       -0.00
  -0.00000000  -0.00000000  -0.00008863           -0.00       -0.00      -13.04


     Writing all to output data dir ./tmp/zrb2-.save/ :
     XML data file, charge density, pseudopotentials, collected wavefunctions

     init_run     :      6.50s CPU      2.45s WALL (       1 calls)
     electrons    :     50.73s CPU     13.70s WALL (       1 calls)
     forces       :      0.67s CPU      0.20s WALL (       1 calls)
     stress       :      3.49s CPU      1.37s WALL (       1 calls)

     Called by init_run:
     wfcinit      :      4.14s CPU      1.08s WALL (       1 calls)
     potinit      :      1.08s CPU      0.50s WALL (       1 calls)
     hinit0       :      1.08s CPU      0.78s WALL (       1 calls)

     Called by electrons:
     c_bands      :     39.14s CPU      9.96s WALL (       7 calls)
     sum_band     :      7.32s CPU      2.12s WALL (       7 calls)
     v_of_rho     :      0.23s CPU      0.06s WALL (       8 calls)
     newd         :      0.96s CPU      0.52s WALL (       8 calls)
     PAW_pot      :      3.60s CPU      1.22s WALL (       8 calls)
     mix_rho      :      0.02s CPU      0.01s WALL (       7 calls)

     Called by c_bands:
     init_us_2    :      2.80s CPU      0.71s WALL (    2924 calls)
     cegterg      :     36.63s CPU      9.32s WALL (    1204 calls)

     Called by *egterg:
     cdiaghg      :      3.89s CPU      0.96s WALL (    5098 calls)
     h_psi        :     31.01s CPU      7.91s WALL (    5270 calls)
     s_psi        :      0.77s CPU      0.20s WALL (    5270 calls)
     g_psi        :      0.13s CPU      0.04s WALL (    3894 calls)

     Called by h_psi:
     h_psi:calbec :      1.18s CPU      0.28s WALL (    5270 calls)
     vloc_psi     :     28.77s CPU      7.36s WALL (    5270 calls)
     add_vuspsi   :      0.88s CPU      0.22s WALL (    5270 calls)

     General routines
     calbec       :      2.33s CPU      0.56s WALL (    9398 calls)
     fft          :      0.73s CPU      0.40s WALL (     127 calls)
     ffts         :      0.52s CPU      0.28s WALL (      15 calls)
     fftw         :     26.31s CPU      6.73s WALL (  110692 calls)
     interpolate  :      0.53s CPU      0.28s WALL (       8 calls)

     Parallel routines

     PWSCF        :     64.86s CPU     20.03s WALL


   This run was terminated on:  14:17:39  10Jun2025            

=------------------------------------------------------------------------------=
   JOB DONE.
=------------------------------------------------------------------------------=
