
     Program PWSCF v.7.4 starts on 10Jun2025 at 13:49:38 

     This program is part of the open-source Quantum ESPRESSO suite
     for quantum simulation of materials; please cite
         "P. Giannozzi et al., J. Phys.:Condens. Matter 21 395502 (2009);
         "P. Giannozzi et al., J. Phys.:Condens. Matter 29 465901 (2017);
         "P. Giannozzi et al., J. Chem. Phys. 152 154105 (2020);
          URL http://www.quantum-espresso.org", 
     in publications or presentations arising from this work. More details at
     http://www.quantum-espresso.org/quote

     Parallel version (MPI & OpenMP), running on      14 processor cores
     Number of MPI processes:                14
     Threads/MPI process:                     1

     MPI processes distributed on     1 nodes
     82117 MiB available memory on the printing compute node when the environment starts

     Reading input from qe.in

     Current dimensions of program PWSCF are:
     Max number of different atomic species (ntypx) = 10
     Max number of k-points (npk) =  40000
     Max angular momentum in pseudopotentials (lmaxx) =  4
     file Zr.pbe-spn-kjpaw_psl.1.0.0.UPF: wavefunction(s)  4S 4P renormalized

     K-points division:     npool     =      14
     Subspace diagonalization in iterative solution of the eigenvalue problem:
     a serial algorithm will be used


     G-vector sticks info
     --------------------
     sticks:   dense  smooth     PW     G-vecs:    dense   smooth      PW
     Sum        1597     805    241                57329    20199    3237

     Using Slab Decomposition



     bravais-lattice index     =            4
     lattice parameter (alat)  =       6.0093  a.u.
     unit-cell volume          =     209.5066 (a.u.)^3
     number of atoms/cell      =            3
     number of atomic types    =            2
     number of electrons       =        18.00
     number of Kohn-Sham states=           13
     kinetic-energy cutoff     =      80.0000  Ry
     charge density cutoff     =     640.0000  Ry
     scf convergence threshold =      1.0E-08
     mixing beta               =       0.7000
     number of iterations used =            8  plain     mixing
     Exchange-correlation= SLA  PW   PBX  PBC
                           (   1   4   3   4   0   0   0)

     celldm(1)=   6.009329  celldm(2)=   0.000000  celldm(3)=   1.114780
     celldm(4)=   0.000000  celldm(5)=   0.000000  celldm(6)=   0.000000

     crystal axes: (cart. coord. in units of alat)
               a(1) = (   1.000000   0.000000   0.000000 )  
               a(2) = (  -0.500000   0.866025   0.000000 )  
               a(3) = (   0.000000   0.000000   1.114780 )  

     reciprocal axes: (cart. coord. in units 2 pi/alat)
               b(1) = (  1.000000  0.577350 -0.000000 )  
               b(2) = (  0.000000  1.154701  0.000000 )  
               b(3) = (  0.000000 -0.000000  0.897038 )  


     PseudoPot. # 1 for Zr read from file:
     /home/cganley2/qe-projects/common/pseudopotentials/SSSP_1.3.0_PBE_precision/Zr.pbe-spn-kjpaw_psl.1.0.0.UPF
     MD5 check sum: 83bf7718257ce689f169bc8534fef73a
     Pseudo is Projector augmented-wave + core cor, Zval = 12.0
     Generated using &quot;atomic&quot; code by A. Dal Corso  v.6.2.2
     Shape of augmentation charge: PSQ
     Using radial grid of 1225 points,  6 beta functions with: 
                l(1) =   0
                l(2) =   0
                l(3) =   1
                l(4) =   1
                l(5) =   2
                l(6) =   2
     Q(r) pseudized with 0 coefficients 


     PseudoPot. # 2 for B  read from file:
     /home/cganley2/qe-projects/common/pseudopotentials/SSSP_1.3.0_PBE_precision/B.pbe-n-kjpaw_psl.1.0.0.UPF
     MD5 check sum: 757e44352cacacece234d5873ff275d1
     Pseudo is Projector augmented-wave + core cor, Zval =  3.0
     Generated using &quot;atomic&quot; code by A. Dal Corso  v.6.3
     Shape of augmentation charge: PSQ
     Using radial grid of 1059 points,  4 beta functions with: 
                l(1) =   0
                l(2) =   0
                l(3) =   1
                l(4) =   1
     Q(r) pseudized with 0 coefficients 


     atomic species   valence    mass     pseudopotential
     Zr               12.00    91.22400     Zr( 1.00)
     B                 3.00    10.81000     B ( 1.00)

     No symmetry found



   Cartesian axes

     site n.     atom                  positions (alat units)
         1        Zr     tau(   1) = (   0.0000000   0.0000000   0.0000000  )
         2        B      tau(   2) = (   0.5000000   0.2886751   0.5573899  )
         3        B      tau(   3) = (  -0.0000000   0.5773503   0.5573899  )

     number of k points=    14  Gaussian smearing, width (Ry)=  0.0100
                       cart. coord. in units 2pi/alat
        k(    1) = (   0.0000000   0.0000000   0.0000000), wk =   0.0740741
        k(    2) = (   0.0000000   0.0000000   0.2990127), wk =   0.1481481
        k(    3) = (   0.0000000   0.3849002   0.0000000), wk =   0.1481481
        k(    4) = (   0.0000000   0.3849002   0.2990127), wk =   0.1481481
        k(    5) = (   0.0000000   0.3849002  -0.2990127), wk =   0.1481481
        k(    6) = (   0.3333333   0.1924501   0.0000000), wk =   0.1481481
        k(    7) = (   0.3333333   0.1924501   0.2990127), wk =   0.1481481
        k(    8) = (   0.3333333   0.1924501  -0.2990127), wk =   0.1481481
        k(    9) = (   0.3333333   0.5773503   0.0000000), wk =   0.1481481
        k(   10) = (   0.3333333   0.5773503   0.2990127), wk =   0.1481481
        k(   11) = (   0.3333333   0.5773503  -0.2990127), wk =   0.1481481
        k(   12) = (   0.3333333  -0.1924501   0.0000000), wk =   0.1481481
        k(   13) = (   0.3333333  -0.1924501   0.2990127), wk =   0.1481481
        k(   14) = (   0.3333333  -0.1924501  -0.2990127), wk =   0.1481481

     Dense  grid:    57329 G-vectors     FFT dimensions: (  50,  50,  54)

     Smooth grid:    20199 G-vectors     FFT dimensions: (  36,  36,  40)

     Estimated max dynamical RAM per process >      53.41 MB

     Estimated total dynamical RAM >     565.79 MB

     Initial potential from superposition of free atoms

     starting charge      17.9973, renormalised to      18.0000
     Starting wfcs are   21 randomized atomic wfcs
     Checking if some PAW data can be deallocated... 

     total cpu time spent up to now is        2.1 secs

     per-process dynamical memory:   153.9 Mb

     Self-consistent Calculation

     iteration #  1     ecut=    80.00 Ry     beta= 0.70
     Davidson diagonalization with overlap
     ethr =  1.00E-02,  avg # of iterations =  2.0

     total cpu time spent up to now is        2.4 secs

     total energy              =    -330.23284721 Ry
     estimated scf accuracy    <       0.28167522 Ry

     iteration #  2     ecut=    80.00 Ry     beta= 0.70
     Davidson diagonalization with overlap
     ethr =  1.56E-03,  avg # of iterations =  3.0

     total cpu time spent up to now is        2.7 secs

     total energy              =    -330.28567557 Ry
     estimated scf accuracy    <       0.31615628 Ry

     iteration #  3     ecut=    80.00 Ry     beta= 0.70
     Davidson diagonalization with overlap
     ethr =  1.56E-03,  avg # of iterations =  2.0

     total cpu time spent up to now is        2.9 secs

     total energy              =    -330.35755822 Ry
     estimated scf accuracy    <       0.00162653 Ry

     iteration #  4     ecut=    80.00 Ry     beta= 0.70
     Davidson diagonalization with overlap
     ethr =  9.04E-06,  avg # of iterations =  4.3

     total cpu time spent up to now is        3.2 secs

     total energy              =    -330.35811584 Ry
     estimated scf accuracy    <       0.00065071 Ry

     iteration #  5     ecut=    80.00 Ry     beta= 0.70
     Davidson diagonalization with overlap
     ethr =  3.62E-06,  avg # of iterations =  2.0

     total cpu time spent up to now is        3.5 secs

     total energy              =    -330.35824399 Ry
     estimated scf accuracy    <       0.00000206 Ry

     iteration #  6     ecut=    80.00 Ry     beta= 0.70
     Davidson diagonalization with overlap
     ethr =  1.14E-08,  avg # of iterations =  4.1

     total cpu time spent up to now is        3.7 secs

     total energy              =    -330.35824651 Ry
     estimated scf accuracy    <       0.00000305 Ry

     iteration #  7     ecut=    80.00 Ry     beta= 0.70
     Davidson diagonalization with overlap
     ethr =  1.14E-08,  avg # of iterations =  2.0

     total cpu time spent up to now is        4.0 secs

     total energy              =    -330.35824667 Ry
     estimated scf accuracy    <       0.00000031 Ry

     iteration #  8     ecut=    80.00 Ry     beta= 0.70
     Davidson diagonalization with overlap
     ethr =  1.72E-09,  avg # of iterations =  2.8

     total cpu time spent up to now is        4.3 secs

     End of self-consistent calculation

          k = 0.0000 0.0000 0.0000 (  2581 PWs)   bands (ev):

   -33.0096 -11.1697 -10.6638 -10.6638   3.0654  13.1085  13.1229  13.1229
    13.3752  19.0383  19.0384  19.8219  19.8222

          k = 0.0000 0.0000 0.2990 (  2539 PWs)   bands (ev):

   -32.9959 -11.4306 -10.6456 -10.6456   4.4071   9.6672  14.1173  14.1173
    16.4835  16.4835  16.5904  17.4834  17.4834

          k = 0.0000 0.3849 0.0000 (  2531 PWs)   bands (ev):

   -32.9259 -11.3557 -11.0446 -10.8197   5.0268   9.3822  12.1302  12.9010
    13.4752  18.2015  18.5098  18.6665  19.6287

          k = 0.0000 0.3849 0.2990 (  2531 PWs)   bands (ev):

   -32.9131 -11.3189 -11.2654 -10.7949   5.4715   9.4001  11.8110  11.9248
    13.5200  17.5431  18.8490  20.7792  21.0034

          k = 0.0000 0.3849-0.2990 (  2531 PWs)   bands (ev):

   -32.9131 -11.3189 -11.2654 -10.7949   5.4715   9.4001  11.8110  11.9248
    13.5200  17.5431  18.8490  20.7792  21.0034

          k = 0.3333 0.1925 0.0000 (  2531 PWs)   bands (ev):

   -32.9259 -11.3557 -11.0446 -10.8197   5.0268   9.3822  12.1302  12.9010
    13.4752  18.2015  18.5098  18.6665  19.6287

          k = 0.3333 0.1925 0.2990 (  2531 PWs)   bands (ev):

   -32.9131 -11.3189 -11.2654 -10.7949   5.4715   9.4001  11.8110  11.9248
    13.5200  17.5431  18.8490  20.7791  21.0034

          k = 0.3333 0.1925-0.2990 (  2531 PWs)   bands (ev):

   -32.9131 -11.3189 -11.2654 -10.7949   5.4715   9.4001  11.8110  11.9248
    13.5200  17.5431  18.8490  20.7791  21.0034

          k = 0.3333 0.5774 0.0000 (  2514 PWs)   bands (ev):

   -32.8835 -11.2992 -11.2992 -10.9811   7.9835   7.9835   8.9013  13.2796
    13.2796  17.2240  17.2240  18.8265  24.1303

          k = 0.3333 0.5774 0.2990 (  2535 PWs)   bands (ev):

   -32.8711 -11.2606 -11.2606 -11.1852   7.2644   7.2644  10.2977  13.0278
    13.0278  19.5134  20.1462  20.1462  22.6871

          k = 0.3333 0.5774-0.2990 (  2535 PWs)   bands (ev):

   -32.8711 -11.2606 -11.2606 -11.1852   7.2644   7.2644  10.2977  13.0278
    13.0278  19.5134  20.1462  20.1462  22.6871

          k = 0.3333-0.1925 0.0000 (  2531 PWs)   bands (ev):

   -32.9259 -11.3557 -11.0446 -10.8197   5.0268   9.3822  12.1302  12.9010
    13.4752  18.2015  18.5098  18.6665  19.6287

          k = 0.3333-0.1925 0.2990 (  2531 PWs)   bands (ev):

   -32.9131 -11.3189 -11.2654 -10.7949   5.4715   9.4001  11.8110  11.9248
    13.5200  17.5431  18.8490  20.7791  21.0034

          k = 0.3333-0.1925-0.2990 (  2531 PWs)   bands (ev):

   -32.9131 -11.3189 -11.2654 -10.7949   5.4715   9.4001  11.8110  11.9248
    13.5200  17.5431  18.8490  20.7791  21.0034

     the Fermi energy is    16.4706 ev

!    total energy              =    -330.35824676 Ry
     total all-electron energy =     -7297.225914 Ry
     estimated scf accuracy    <          3.7E-09 Ry
     smearing contrib. (-TS)   =      -0.00102080 Ry
     internal energy E=F+TS    =    -330.35722596 Ry

     The total energy is F=E-TS. E is the sum of the following terms:
     one-electron contribution =      -2.06247735 Ry
     hartree contribution      =      12.46860193 Ry
     xc contribution           =     -24.04897585 Ry
     ewald contribution        =     -96.27913793 Ry
     one-center paw contrib.   =    -220.43523675 Ry

     convergence has been achieved in   8 iterations

     Forces acting on atoms (cartesian axes, Ry/au):

     atom    1 type  1   force =    -0.00000057    0.00000050    0.00000054
     atom    2 type  2   force =    -0.00000047    0.00000017   -0.00000038
     atom    3 type  2   force =     0.00000105   -0.00000067   -0.00000016

     Total force =     0.000002     Total SCF correction =     0.000003
     SCF correction compared to forces is large: reduce conv_thr to get better values


     Computing stress (Cartesian axis) and pressure

          total   stress  (Ry/bohr**3)                   (kbar)     P=      -18.76
   0.00001513  -0.00000002   0.00000000            2.23       -0.00        0.00
  -0.00000002   0.00001509   0.00000000           -0.00        2.22        0.00
   0.00000000   0.00000000  -0.00041281            0.00        0.00      -60.73


     Writing all to output data dir ./tmp/zrb2-80.save/ :
     XML data file, charge density, pseudopotentials, collected wavefunctions

     init_run     :      1.75s CPU      1.84s WALL (       1 calls)
     electrons    :      2.06s CPU      2.16s WALL (       1 calls)
     forces       :      0.15s CPU      0.15s WALL (       1 calls)
     stress       :      0.26s CPU      0.26s WALL (       1 calls)

     Called by init_run:
     wfcinit      :      0.28s CPU      0.31s WALL (       1 calls)
     potinit      :      0.61s CPU      0.63s WALL (       1 calls)
     hinit0       :      0.82s CPU      0.85s WALL (       1 calls)

     Called by electrons:
     c_bands      :      0.30s CPU      0.30s WALL (       8 calls)
     sum_band     :      0.37s CPU      0.38s WALL (       8 calls)
     v_of_rho     :      0.75s CPU      0.77s WALL (       9 calls)
     newd         :      0.19s CPU      0.19s WALL (       9 calls)
     PAW_pot      :      0.46s CPU      0.48s WALL (       9 calls)
     mix_rho      :      0.03s CPU      0.03s WALL (       8 calls)

     Called by c_bands:
     init_us_2    :      0.02s CPU      0.03s WALL (      18 calls)
     cegterg      :      0.25s CPU      0.25s WALL (       8 calls)

     Called by *egterg:
     cdiaghg      :      0.00s CPU      0.03s WALL (      25 calls)
     h_psi        :      0.47s CPU      0.48s WALL (      26 calls)
     s_psi        :      0.01s CPU      0.01s WALL (      26 calls)
     g_psi        :      0.00s CPU      0.00s WALL (      17 calls)

     Called by h_psi:
     h_psi:calbec :      0.02s CPU      0.02s WALL (      26 calls)
     vloc_psi     :      0.44s CPU      0.45s WALL (      26 calls)
     add_vuspsi   :      0.01s CPU      0.01s WALL (      26 calls)

     General routines
     calbec       :      0.03s CPU      0.03s WALL (      51 calls)
     fft          :      0.49s CPU      0.51s WALL (     140 calls)
     ffts         :      0.40s CPU      0.40s WALL (      17 calls)
     fftw         :      0.41s CPU      0.41s WALL (     644 calls)
     interpolate  :      0.42s CPU      0.42s WALL (       9 calls)

     Parallel routines

     PWSCF        :      4.40s CPU      4.91s WALL


   This run was terminated on:  13:49:43  10Jun2025            

=------------------------------------------------------------------------------=
   JOB DONE.
=------------------------------------------------------------------------------=
