
     Program PWSCF v.7.4 starts on 10Jun2025 at 14:17:19 

     This program is part of the open-source Quantum ESPRESSO suite
     for quantum simulation of materials; please cite
         "P. Giannozzi et al., J. Phys.:Condens. Matter 21 395502 (2009);
         "P. Giannozzi et al., J. Phys.:Condens. Matter 29 465901 (2017);
         "P. Giannozzi et al., J. Chem. Phys. 152 154105 (2020);
          URL http://www.quantum-espresso.org", 
     in publications or presentations arising from this work. More details at
     http://www.quantum-espresso.org/quote

     Parallel version (MPI & OpenMP), running on       4 processor cores
     Number of MPI processes:                 1
     Threads/MPI process:                     4

     MPI processes distributed on     1 nodes
     134539 MiB available memory on the printing compute node when the environment starts

     Reading input from qe.in

     Current dimensions of program PWSCF are:
     Max number of different atomic species (ntypx) = 10
     Max number of k-points (npk) =  40000
     Max angular momentum in pseudopotentials (lmaxx) =  4
     file Zr.pbe-spn-kjpaw_psl.1.0.0.UPF: wavefunction(s)  4S 4P renormalized

     Subspace diagonalization in iterative solution of the eigenvalue problem:
     a serial algorithm will be used


     G-vector sticks info
     --------------------
     sticks:   dense  smooth     PW     G-vecs:    dense   smooth      PW
     Sum        1003     499    163                28345     9997    1967

     Using Slab Decomposition



     bravais-lattice index     =            4
     lattice parameter (alat)  =       6.0093  a.u.
     unit-cell volume          =     209.5066 (a.u.)^3
     number of atoms/cell      =            3
     number of atomic types    =            2
     number of electrons       =        18.00
     number of Kohn-Sham states=           13
     kinetic-energy cutoff     =      50.0000  Ry
     charge density cutoff     =     400.0000  Ry
     scf convergence threshold =      1.0E-08
     mixing beta               =       0.7000
     number of iterations used =            8  plain     mixing
     Exchange-correlation= SLA  PW   PBX  PBC
                           (   1   4   3   4   0   0   0)

     celldm(1)=   6.009329  celldm(2)=   0.000000  celldm(3)=   1.114780
     celldm(4)=   0.000000  celldm(5)=   0.000000  celldm(6)=   0.000000

     crystal axes: (cart. coord. in units of alat)
               a(1) = (   1.000000   0.000000   0.000000 )  
               a(2) = (  -0.500000   0.866025   0.000000 )  
               a(3) = (   0.000000   0.000000   1.114780 )  

     reciprocal axes: (cart. coord. in units 2 pi/alat)
               b(1) = (  1.000000  0.577350 -0.000000 )  
               b(2) = (  0.000000  1.154701  0.000000 )  
               b(3) = (  0.000000 -0.000000  0.897038 )  


     PseudoPot. # 1 for Zr read from file:
     /home/cganley2/qe-projects/common/pseudopotentials/SSSP_1.3.0_PBE_precision/Zr.pbe-spn-kjpaw_psl.1.0.0.UPF
     MD5 check sum: 83bf7718257ce689f169bc8534fef73a
     Pseudo is Projector augmented-wave + core cor, Zval = 12.0
     Generated using &quot;atomic&quot; code by A. Dal Corso  v.6.2.2
     Shape of augmentation charge: PSQ
     Using radial grid of 1225 points,  6 beta functions with: 
                l(1) =   0
                l(2) =   0
                l(3) =   1
                l(4) =   1
                l(5) =   2
                l(6) =   2
     Q(r) pseudized with 0 coefficients 


     PseudoPot. # 2 for B  read from file:
     /home/cganley2/qe-projects/common/pseudopotentials/SSSP_1.3.0_PBE_precision/B.pbe-n-kjpaw_psl.1.0.0.UPF
     MD5 check sum: 757e44352cacacece234d5873ff275d1
     Pseudo is Projector augmented-wave + core cor, Zval =  3.0
     Generated using &quot;atomic&quot; code by A. Dal Corso  v.6.3
     Shape of augmentation charge: PSQ
     Using radial grid of 1059 points,  4 beta functions with: 
                l(1) =   0
                l(2) =   0
                l(3) =   1
                l(4) =   1
     Q(r) pseudized with 0 coefficients 


     atomic species   valence    mass     pseudopotential
     Zr               12.00    91.22400     Zr( 1.00)
     B                 3.00    10.81000     B ( 1.00)

     No symmetry found



   Cartesian axes

     site n.     atom                  positions (alat units)
         1        Zr     tau(   1) = (   0.0000000   0.0000000   0.0000000  )
         2        B      tau(   2) = (   0.5000000   0.2886751   0.5573899  )
         3        B      tau(   3) = (  -0.0000000   0.5773503   0.5573899  )

     number of k points=   260  Gaussian smearing, width (Ry)=  0.0100

     Number of k-points >= 100: set verbosity='high' to print them.

     Dense  grid:    28345 G-vectors     FFT dimensions: (  40,  40,  45)

     Smooth grid:     9997 G-vectors     FFT dimensions: (  27,  27,  32)

     Estimated max dynamical RAM per process >     173.02 MB

     Initial potential from superposition of free atoms

     starting charge      17.9973, renormalised to      18.0000
     Starting wfcs are   21 randomized atomic wfcs
     Checking if some PAW data can be deallocated... 

     total cpu time spent up to now is        3.1 secs

     per-process dynamical memory:   264.3 Mb

     Self-consistent Calculation

     iteration #  1     ecut=    50.00 Ry     beta= 0.70
     Davidson diagonalization with overlap
     ethr =  1.00E-02,  avg # of iterations =  2.0

     total cpu time spent up to now is        5.5 secs

     total energy              =    -330.23895875 Ry
     estimated scf accuracy    <       0.25764807 Ry

     iteration #  2     ecut=    50.00 Ry     beta= 0.70
     Davidson diagonalization with overlap
     ethr =  1.43E-03,  avg # of iterations =  3.2

     total cpu time spent up to now is        8.3 secs

     total energy              =    -330.29443253 Ry
     estimated scf accuracy    <       0.25968439 Ry

     iteration #  3     ecut=    50.00 Ry     beta= 0.70
     Davidson diagonalization with overlap
     ethr =  1.43E-03,  avg # of iterations =  2.0

     total cpu time spent up to now is       10.6 secs

     total energy              =    -330.35275498 Ry
     estimated scf accuracy    <       0.00087122 Ry

     iteration #  4     ecut=    50.00 Ry     beta= 0.70
     Davidson diagonalization with overlap
     ethr =  4.84E-06,  avg # of iterations =  5.4

     total cpu time spent up to now is       14.3 secs

     total energy              =    -330.35340558 Ry
     estimated scf accuracy    <       0.00061183 Ry

     iteration #  5     ecut=    50.00 Ry     beta= 0.70
     Davidson diagonalization with overlap
     ethr =  3.40E-06,  avg # of iterations =  2.2

     total cpu time spent up to now is       16.6 secs

     total energy              =    -330.35353309 Ry
     estimated scf accuracy    <       0.00000103 Ry

     iteration #  6     ecut=    50.00 Ry     beta= 0.70
     Davidson diagonalization with overlap
     ethr =  5.72E-09,  avg # of iterations =  4.3

     total cpu time spent up to now is       19.8 secs

     total energy              =    -330.35353456 Ry
     estimated scf accuracy    <       0.00000261 Ry

     iteration #  7     ecut=    50.00 Ry     beta= 0.70
     Davidson diagonalization with overlap
     ethr =  5.72E-09,  avg # of iterations =  2.7

     total cpu time spent up to now is       22.5 secs

     End of self-consistent calculation

     Number of k-points >= 100: set verbosity='high' to print the bands.

     the Fermi energy is    15.6664 ev

!    total energy              =    -330.35353509 Ry
     total all-electron energy =     -7297.221203 Ry
     estimated scf accuracy    <          4.7E-09 Ry
     smearing contrib. (-TS)   =      -0.00023386 Ry
     internal energy E=F+TS    =    -330.35330123 Ry

     The total energy is F=E-TS. E is the sum of the following terms:
     one-electron contribution =      -2.05971762 Ry
     hartree contribution      =      12.46943599 Ry
     xc contribution           =     -24.04527492 Ry
     ewald contribution        =     -96.27913793 Ry
     one-center paw contrib.   =    -220.43860675 Ry

     convergence has been achieved in   7 iterations

     Forces acting on atoms (cartesian axes, Ry/au):

     atom    1 type  1   force =    -0.00000003    0.00000011   -0.00000738
     atom    2 type  2   force =    -0.00000007   -0.00000002    0.00000352
     atom    3 type  2   force =     0.00000009   -0.00000009    0.00000385

     Total force =     0.000009     Total SCF correction =     0.000032
     SCF correction compared to forces is large: reduce conv_thr to get better values


     Computing stress (Cartesian axis) and pressure

          total   stress  (Ry/bohr**3)                   (kbar)     P=      -14.26
  -0.00010321  -0.00000000  -0.00000000          -15.18       -0.00       -0.00
  -0.00000000  -0.00010321   0.00000000           -0.00      -15.18        0.00
  -0.00000000   0.00000000  -0.00008430           -0.00        0.00      -12.40


     Writing all to output data dir ./tmp/zrb2-.save/ :
     XML data file, charge density, pseudopotentials, collected wavefunctions

     init_run     :      8.38s CPU      2.93s WALL (       1 calls)
     electrons    :     73.15s CPU     19.41s WALL (       1 calls)
     forces       :      0.87s CPU      0.26s WALL (       1 calls)
     stress       :      4.73s CPU      1.68s WALL (       1 calls)

     Called by init_run:
     wfcinit      :      6.04s CPU      1.56s WALL (       1 calls)
     potinit      :      1.06s CPU      0.50s WALL (       1 calls)
     hinit0       :      1.07s CPU      0.77s WALL (       1 calls)

     Called by electrons:
     c_bands      :     58.50s CPU     14.91s WALL (       7 calls)
     sum_band     :     10.45s CPU      2.91s WALL (       7 calls)
     v_of_rho     :      0.23s CPU      0.06s WALL (       8 calls)
     newd         :      0.94s CPU      0.51s WALL (       8 calls)
     PAW_pot      :      3.55s CPU      1.20s WALL (       8 calls)
     mix_rho      :      0.02s CPU      0.01s WALL (       7 calls)

     Called by c_bands:
     init_us_2    :      4.19s CPU      1.05s WALL (    4420 calls)
     cegterg      :     54.71s CPU     13.95s WALL (    1820 calls)

     Called by *egterg:
     cdiaghg      :      5.68s CPU      1.41s WALL (    7539 calls)
     h_psi        :     45.97s CPU     11.82s WALL (    7799 calls)
     s_psi        :      1.17s CPU      0.30s WALL (    7799 calls)
     g_psi        :      0.24s CPU      0.06s WALL (    5719 calls)

     Called by h_psi:
     h_psi:calbec :      1.66s CPU      0.42s WALL (    7799 calls)
     vloc_psi     :     42.84s CPU     11.00s WALL (    7799 calls)
     add_vuspsi   :      1.27s CPU      0.33s WALL (    7799 calls)

     General routines
     calbec       :      3.29s CPU      0.83s WALL (   14039 calls)
     fft          :      0.69s CPU      0.40s WALL (     127 calls)
     ffts         :      0.52s CPU      0.28s WALL (      15 calls)
     fftw         :     39.12s CPU     10.07s WALL (  167848 calls)
     interpolate  :      0.53s CPU      0.28s WALL (       8 calls)

     Parallel routines

     PWSCF        :     92.22s CPU     28.20s WALL


   This run was terminated on:  14:17:47  10Jun2025            

=------------------------------------------------------------------------------=
   JOB DONE.
=------------------------------------------------------------------------------=
