
     Program PWSCF v.7.4 starts on 10Jun2025 at 14:16:50 

     This program is part of the open-source Quantum ESPRESSO suite
     for quantum simulation of materials; please cite
         "P. Giannozzi et al., J. Phys.:Condens. Matter 21 395502 (2009);
         "P. Giannozzi et al., J. Phys.:Condens. Matter 29 465901 (2017);
         "P. Giannozzi et al., J. Chem. Phys. 152 154105 (2020);
          URL http://www.quantum-espresso.org", 
     in publications or presentations arising from this work. More details at
     http://www.quantum-espresso.org/quote

     Parallel version (MPI & OpenMP), running on       4 processor cores
     Number of MPI processes:                 1
     Threads/MPI process:                     4

     MPI processes distributed on     1 nodes
     120022 MiB available memory on the printing compute node when the environment starts

     Reading input from qe.in

     Current dimensions of program PWSCF are:
     Max number of different atomic species (ntypx) = 10
     Max number of k-points (npk) =  40000
     Max angular momentum in pseudopotentials (lmaxx) =  4
     file Zr.pbe-spn-kjpaw_psl.1.0.0.UPF: wavefunction(s)  4S 4P renormalized

     Subspace diagonalization in iterative solution of the eigenvalue problem:
     a serial algorithm will be used


     G-vector sticks info
     --------------------
     sticks:   dense  smooth     PW     G-vecs:    dense   smooth      PW
     Sum        1003     499    163                28345     9997    1847

     Using Slab Decomposition



     bravais-lattice index     =            4
     lattice parameter (alat)  =       6.0093  a.u.
     unit-cell volume          =     209.5066 (a.u.)^3
     number of atoms/cell      =            3
     number of atomic types    =            2
     number of electrons       =        18.00
     number of Kohn-Sham states=           13
     kinetic-energy cutoff     =      50.0000  Ry
     charge density cutoff     =     400.0000  Ry
     scf convergence threshold =      1.0E-08
     mixing beta               =       0.7000
     number of iterations used =            8  plain     mixing
     Exchange-correlation= SLA  PW   PBX  PBC
                           (   1   4   3   4   0   0   0)

     celldm(1)=   6.009329  celldm(2)=   0.000000  celldm(3)=   1.114780
     celldm(4)=   0.000000  celldm(5)=   0.000000  celldm(6)=   0.000000

     crystal axes: (cart. coord. in units of alat)
               a(1) = (   1.000000   0.000000   0.000000 )  
               a(2) = (  -0.500000   0.866025   0.000000 )  
               a(3) = (   0.000000   0.000000   1.114780 )  

     reciprocal axes: (cart. coord. in units 2 pi/alat)
               b(1) = (  1.000000  0.577350 -0.000000 )  
               b(2) = (  0.000000  1.154701  0.000000 )  
               b(3) = (  0.000000 -0.000000  0.897038 )  


     PseudoPot. # 1 for Zr read from file:
     /home/cganley2/qe-projects/common/pseudopotentials/SSSP_1.3.0_PBE_precision/Zr.pbe-spn-kjpaw_psl.1.0.0.UPF
     MD5 check sum: 83bf7718257ce689f169bc8534fef73a
     Pseudo is Projector augmented-wave + core cor, Zval = 12.0
     Generated using &quot;atomic&quot; code by A. Dal Corso  v.6.2.2
     Shape of augmentation charge: PSQ
     Using radial grid of 1225 points,  6 beta functions with: 
                l(1) =   0
                l(2) =   0
                l(3) =   1
                l(4) =   1
                l(5) =   2
                l(6) =   2
     Q(r) pseudized with 0 coefficients 


     PseudoPot. # 2 for B  read from file:
     /home/cganley2/qe-projects/common/pseudopotentials/SSSP_1.3.0_PBE_precision/B.pbe-n-kjpaw_psl.1.0.0.UPF
     MD5 check sum: 757e44352cacacece234d5873ff275d1
     Pseudo is Projector augmented-wave + core cor, Zval =  3.0
     Generated using &quot;atomic&quot; code by A. Dal Corso  v.6.3
     Shape of augmentation charge: PSQ
     Using radial grid of 1059 points,  4 beta functions with: 
                l(1) =   0
                l(2) =   0
                l(3) =   1
                l(4) =   1
     Q(r) pseudized with 0 coefficients 


     atomic species   valence    mass     pseudopotential
     Zr               12.00    91.22400     Zr( 1.00)
     B                 3.00    10.81000     B ( 1.00)

     No symmetry found



   Cartesian axes

     site n.     atom                  positions (alat units)
         1        Zr     tau(   1) = (   0.0000000   0.0000000   0.0000000  )
         2        B      tau(   2) = (   0.5000000   0.2886751   0.5573899  )
         3        B      tau(   3) = (  -0.0000000   0.5773503   0.5573899  )

     number of k points=    63  Gaussian smearing, width (Ry)=  0.0100
                       cart. coord. in units 2pi/alat
        k(    1) = (   0.0000000   0.0000000   0.0000000), wk =   0.0160000
        k(    2) = (   0.0000000   0.0000000   0.1794076), wk =   0.0320000
        k(    3) = (   0.0000000   0.0000000   0.3588152), wk =   0.0320000
        k(    4) = (   0.0000000   0.2309401   0.0000000), wk =   0.0320000
        k(    5) = (   0.0000000   0.2309401   0.1794076), wk =   0.0320000
        k(    6) = (   0.0000000   0.2309401   0.3588152), wk =   0.0320000
        k(    7) = (   0.0000000   0.2309401  -0.3588152), wk =   0.0320000
        k(    8) = (   0.0000000   0.2309401  -0.1794076), wk =   0.0320000
        k(    9) = (   0.0000000   0.4618802   0.0000000), wk =   0.0320000
        k(   10) = (   0.0000000   0.4618802   0.1794076), wk =   0.0320000
        k(   11) = (   0.0000000   0.4618802   0.3588152), wk =   0.0320000
        k(   12) = (   0.0000000   0.4618802  -0.3588152), wk =   0.0320000
        k(   13) = (   0.0000000   0.4618802  -0.1794076), wk =   0.0320000
        k(   14) = (   0.2000000   0.1154701   0.0000000), wk =   0.0320000
        k(   15) = (   0.2000000   0.1154701   0.1794076), wk =   0.0320000
        k(   16) = (   0.2000000   0.1154701   0.3588152), wk =   0.0320000
        k(   17) = (   0.2000000   0.1154701  -0.3588152), wk =   0.0320000
        k(   18) = (   0.2000000   0.1154701  -0.1794076), wk =   0.0320000
        k(   19) = (   0.2000000   0.3464102   0.0000000), wk =   0.0320000
        k(   20) = (   0.2000000   0.3464102   0.1794076), wk =   0.0320000
        k(   21) = (   0.2000000   0.3464102   0.3588152), wk =   0.0320000
        k(   22) = (   0.2000000   0.3464102  -0.3588152), wk =   0.0320000
        k(   23) = (   0.2000000   0.3464102  -0.1794076), wk =   0.0320000
        k(   24) = (   0.2000000   0.5773503   0.0000000), wk =   0.0320000
        k(   25) = (   0.2000000   0.5773503   0.1794076), wk =   0.0320000
        k(   26) = (   0.2000000   0.5773503   0.3588152), wk =   0.0320000
        k(   27) = (   0.2000000   0.5773503  -0.3588152), wk =   0.0320000
        k(   28) = (   0.2000000   0.5773503  -0.1794076), wk =   0.0320000
        k(   29) = (   0.2000000  -0.3464102   0.0000000), wk =   0.0320000
        k(   30) = (   0.2000000  -0.3464102   0.1794076), wk =   0.0320000
        k(   31) = (   0.2000000  -0.3464102   0.3588152), wk =   0.0320000
        k(   32) = (   0.2000000  -0.3464102  -0.3588152), wk =   0.0320000
        k(   33) = (   0.2000000  -0.3464102  -0.1794076), wk =   0.0320000
        k(   34) = (   0.2000000  -0.1154701   0.0000000), wk =   0.0320000
        k(   35) = (   0.2000000  -0.1154701   0.1794076), wk =   0.0320000
        k(   36) = (   0.2000000  -0.1154701   0.3588152), wk =   0.0320000
        k(   37) = (   0.2000000  -0.1154701  -0.3588152), wk =   0.0320000
        k(   38) = (   0.2000000  -0.1154701  -0.1794076), wk =   0.0320000
        k(   39) = (   0.4000000   0.2309401   0.0000000), wk =   0.0320000
        k(   40) = (   0.4000000   0.2309401   0.1794076), wk =   0.0320000
        k(   41) = (   0.4000000   0.2309401   0.3588152), wk =   0.0320000
        k(   42) = (   0.4000000   0.2309401  -0.3588152), wk =   0.0320000
        k(   43) = (   0.4000000   0.2309401  -0.1794076), wk =   0.0320000
        k(   44) = (   0.4000000   0.4618802   0.0000000), wk =   0.0320000
        k(   45) = (   0.4000000   0.4618802   0.1794076), wk =   0.0320000
        k(   46) = (   0.4000000   0.4618802   0.3588152), wk =   0.0320000
        k(   47) = (   0.4000000   0.4618802  -0.3588152), wk =   0.0320000
        k(   48) = (   0.4000000   0.4618802  -0.1794076), wk =   0.0320000
        k(   49) = (   0.4000000   0.6928203   0.0000000), wk =   0.0320000
        k(   50) = (   0.4000000   0.6928203   0.1794076), wk =   0.0320000
        k(   51) = (   0.4000000   0.6928203   0.3588152), wk =   0.0320000
        k(   52) = (   0.4000000   0.6928203  -0.3588152), wk =   0.0320000
        k(   53) = (   0.4000000   0.6928203  -0.1794076), wk =   0.0320000
        k(   54) = (   0.4000000  -0.2309401   0.0000000), wk =   0.0320000
        k(   55) = (   0.4000000  -0.2309401   0.1794076), wk =   0.0320000
        k(   56) = (   0.4000000  -0.2309401   0.3588152), wk =   0.0320000
        k(   57) = (   0.4000000  -0.2309401  -0.3588152), wk =   0.0320000
        k(   58) = (   0.4000000  -0.2309401  -0.1794076), wk =   0.0320000
        k(   59) = (   0.4000000   0.0000000   0.0000000), wk =   0.0320000
        k(   60) = (   0.4000000   0.0000000   0.1794076), wk =   0.0320000
        k(   61) = (   0.4000000   0.0000000   0.3588152), wk =   0.0320000
        k(   62) = (   0.4000000   0.0000000  -0.3588152), wk =   0.0320000
        k(   63) = (   0.4000000   0.0000000  -0.1794076), wk =   0.0320000

     Dense  grid:    28345 G-vectors     FFT dimensions: (  40,  40,  45)

     Smooth grid:     9997 G-vectors     FFT dimensions: (  27,  27,  32)

     Estimated max dynamical RAM per process >     124.13 MB

     Initial potential from superposition of free atoms

     starting charge      17.9973, renormalised to      18.0000
     Starting wfcs are   21 randomized atomic wfcs
     Checking if some PAW data can be deallocated... 

     total cpu time spent up to now is        2.0 secs

     per-process dynamical memory:   212.4 Mb

     Self-consistent Calculation

     iteration #  1     ecut=    50.00 Ry     beta= 0.70
     Davidson diagonalization with overlap
     ethr =  1.00E-02,  avg # of iterations =  2.0

     total cpu time spent up to now is        2.8 secs

     total energy              =    -330.24053205 Ry
     estimated scf accuracy    <       0.25461815 Ry

     iteration #  2     ecut=    50.00 Ry     beta= 0.70
     Davidson diagonalization with overlap
     ethr =  1.41E-03,  avg # of iterations =  3.4

     total cpu time spent up to now is        3.7 secs

     total energy              =    -330.29284777 Ry
     estimated scf accuracy    <       0.25737532 Ry

     iteration #  3     ecut=    50.00 Ry     beta= 0.70
     Davidson diagonalization with overlap
     ethr =  1.41E-03,  avg # of iterations =  2.0

     total cpu time spent up to now is        4.5 secs

     total energy              =    -330.35178695 Ry
     estimated scf accuracy    <       0.00111743 Ry

     iteration #  4     ecut=    50.00 Ry     beta= 0.70
     Davidson diagonalization with overlap
     ethr =  6.21E-06,  avg # of iterations =  5.7

     total cpu time spent up to now is        5.6 secs

     total energy              =    -330.35239695 Ry
     estimated scf accuracy    <       0.00059833 Ry

     iteration #  5     ecut=    50.00 Ry     beta= 0.70
     Davidson diagonalization with overlap
     ethr =  3.32E-06,  avg # of iterations =  2.0

     total cpu time spent up to now is        6.3 secs

     total energy              =    -330.35251921 Ry
     estimated scf accuracy    <       0.00000109 Ry

     iteration #  6     ecut=    50.00 Ry     beta= 0.70
     Davidson diagonalization with overlap
     ethr =  6.06E-09,  avg # of iterations =  4.3

     total cpu time spent up to now is        7.3 secs

     total energy              =    -330.35252096 Ry
     estimated scf accuracy    <       0.00000289 Ry

     iteration #  7     ecut=    50.00 Ry     beta= 0.70
     Davidson diagonalization with overlap
     ethr =  6.06E-09,  avg # of iterations =  2.6

     total cpu time spent up to now is        8.2 secs

     total energy              =    -330.35252148 Ry
     estimated scf accuracy    <       0.00000002 Ry

     iteration #  8     ecut=    50.00 Ry     beta= 0.70
     Davidson diagonalization with overlap
     ethr =  1.16E-10,  avg # of iterations =  3.8

     total cpu time spent up to now is        9.1 secs

     End of self-consistent calculation

          k = 0.0000 0.0000 0.0000 (  1263 PWs)   bands (ev):

   -32.9703 -11.1562 -10.6130 -10.6130   3.0103  13.0921  13.0921  13.1439
    13.3518  19.0582  19.0583  19.8288  19.8289

          k = 0.0000 0.0000 0.1794 (  1257 PWs)   bands (ev):

   -32.9640 -11.2799 -10.6045 -10.6045   3.5614  11.0701  13.4607  13.4607
    15.2790  17.3994  17.3994  18.7735  18.7735

          k = 0.0000 0.0000 0.3588 (  1251 PWs)   bands (ev):

   -32.9537 -11.4723 -10.5907 -10.5907   4.7263   9.1382  14.4251  14.4251
    16.1878  16.1878  16.9308  16.9308  17.1348

          k = 0.0000 0.2309 0.0000 (  1250 PWs)   bands (ev):

   -32.9320 -11.0990 -10.9415 -10.6854   3.7703  11.2619  12.6863  13.0387
    13.6696  17.8988  18.6433  19.0022  19.5926

          k = 0.0000 0.2309 0.1794 (  1241 PWs)   bands (ev):

   -32.9258 -11.2153 -10.9270 -10.6755   4.2054  11.0332  11.8530  12.9411
    14.4568  17.0800  17.4625  20.1022  20.3062

          k = 0.0000 0.2309 0.3588 (  1253 PWs)   bands (ev):

   -32.9159 -11.3949 -10.9056 -10.6594   5.0150  10.0270  11.7679  12.7045
    14.6869  17.3321  17.4194  18.7616  19.2630

          k = 0.0000 0.2309-0.3588 (  1253 PWs)   bands (ev):

   -32.9159 -11.3949 -10.9056 -10.6594   5.0150  10.0270  11.7679  12.7045
    14.6869  17.3321  17.4194  18.7616  19.2630

          k = 0.0000 0.2309-0.1794 (  1241 PWs)   bands (ev):

   -32.9258 -11.2153 -10.9270 -10.6755   4.2054  11.0332  11.8530  12.9411
    14.4568  17.0800  17.4625  20.1022  20.3062

          k = 0.0000 0.4619 0.0000 (  1252 PWs)   bands (ev):

   -32.8693 -11.4375 -11.0049 -10.8001   5.7090   8.3795  11.9439  12.7214
    13.2316  18.0715  18.2039  19.5379  20.1747

          k = 0.0000 0.4619 0.1794 (  1259 PWs)   bands (ev):

   -32.8635 -11.4178 -11.1062 -10.7880   5.8210   8.2769  12.1266  12.4114
    13.1475  17.3526  18.9672  20.5332  20.5592

          k = 0.0000 0.4619 0.3588 (  1246 PWs)   bands (ev):

   -32.8539 -11.3851 -11.2659 -10.7683   5.7145   8.8992  11.4002  11.7886
    13.4505  18.1902  20.0305  20.5335  21.5104

          k = 0.0000 0.4619-0.3588 (  1246 PWs)   bands (ev):

   -32.8539 -11.3851 -11.2659 -10.7683   5.7145   8.8992  11.4002  11.7886
    13.4505  18.1902  20.0305  20.5335  21.5104

          k = 0.0000 0.4619-0.1794 (  1259 PWs)   bands (ev):

   -32.8635 -11.4178 -11.1062 -10.7880   5.8210   8.2769  12.1266  12.4114
    13.1475  17.3526  18.9672  20.5332  20.5592

          k = 0.2000 0.1155 0.0000 (  1250 PWs)   bands (ev):

   -32.9320 -11.0990 -10.9415 -10.6854   3.7703  11.2619  12.6863  13.0387
    13.6696  17.8988  18.6433  19.0022  19.5926

          k = 0.2000 0.1155 0.1794 (  1241 PWs)   bands (ev):

   -32.9258 -11.2153 -10.9270 -10.6755   4.2054  11.0332  11.8530  12.9411
    14.4568  17.0800  17.4625  20.1022  20.3062

          k = 0.2000 0.1155 0.3588 (  1253 PWs)   bands (ev):

   -32.9159 -11.3949 -10.9056 -10.6594   5.0150  10.0270  11.7679  12.7045
    14.6869  17.3321  17.4194  18.7616  19.2630

          k = 0.2000 0.1155-0.3588 (  1253 PWs)   bands (ev):

   -32.9159 -11.3949 -10.9056 -10.6594   5.0150  10.0270  11.7679  12.7045
    14.6869  17.3321  17.4194  18.7616  19.2630

          k = 0.2000 0.1155-0.1794 (  1241 PWs)   bands (ev):

   -32.9258 -11.2153 -10.9270 -10.6755   4.2054  11.0332  11.8530  12.9411
    14.4568  17.0800  17.4625  20.1022  20.3062

          k = 0.2000 0.3464 0.0000 (  1255 PWs)   bands (ev):

   -32.8814 -11.2641 -11.0231 -10.8680   5.1287   9.6932  11.2477  12.2751
    15.1735  16.2331  16.8522  20.6818  22.0459

          k = 0.2000 0.3464 0.1794 (  1254 PWs)   bands (ev):

   -32.8755 -11.2476 -11.1259 -10.8551   5.3336   9.6638  10.7834  12.4320
    14.4334  16.1549  19.4044  20.2202  21.4616

          k = 0.2000 0.3464 0.3588 (  1244 PWs)   bands (ev):

   -32.8659 -11.2921 -11.2157 -10.8341   5.5623   9.5817  10.9760  11.9107
    13.4787  18.0972  19.8162  19.9256  21.3771

          k = 0.2000 0.3464-0.3588 (  1244 PWs)   bands (ev):

   -32.8659 -11.2921 -11.2157 -10.8341   5.5623   9.5817  10.9760  11.9107
    13.4787  18.0972  19.8162  19.9256  21.3771

          k = 0.2000 0.3464-0.1794 (  1254 PWs)   bands (ev):

   -32.8755 -11.2476 -11.1259 -10.8551   5.3336   9.6638  10.7834  12.4320
    14.4334  16.1549  19.4044  20.2202  21.4616

          k = 0.2000 0.5774 0.0000 (  1256 PWs)   bands (ev):

   -32.8499 -11.4123 -11.0250 -10.9757   7.3871   7.4540  10.1933  12.3631
    14.7204  15.4829  18.4177  19.8047  22.0174

          k = 0.2000 0.5774 0.1794 (  1262 PWs)   bands (ev):

   -32.8441 -11.3925 -11.0731 -11.0096   6.9715   7.6678  10.2633  12.7802
    13.3586  17.6232  19.1201  19.8988  21.7253

          k = 0.2000 0.5774 0.3588 (  1246 PWs)   bands (ev):

   -32.8347 -11.3601 -11.2260 -10.9850   6.3393   7.9279  10.7158  12.5405
    13.2777  19.2937  20.7600  20.9508  22.1010

          k = 0.2000 0.5774-0.3588 (  1246 PWs)   bands (ev):

   -32.8347 -11.3601 -11.2260 -10.9850   6.3393   7.9279  10.7158  12.5405
    13.2777  19.2937  20.7600  20.9508  22.1010

          k = 0.2000 0.5774-0.1794 (  1262 PWs)   bands (ev):

   -32.8441 -11.3925 -11.0731 -11.0096   6.9715   7.6678  10.2633  12.7802
    13.3586  17.6232  19.1201  19.8988  21.7253

          k = 0.2000-0.3464 0.0000 (  1255 PWs)   bands (ev):

   -32.8814 -11.2641 -11.0231 -10.8680   5.1287   9.6932  11.2477  12.2751
    15.1735  16.2331  16.8522  20.6818  22.0459

          k = 0.2000-0.3464 0.1794 (  1254 PWs)   bands (ev):

   -32.8755 -11.2476 -11.1259 -10.8551   5.3336   9.6638  10.7834  12.4320
    14.4334  16.1549  19.4044  20.2202  21.4616

          k = 0.2000-0.3464 0.3588 (  1244 PWs)   bands (ev):

   -32.8659 -11.2921 -11.2157 -10.8341   5.5623   9.5817  10.9760  11.9107
    13.4787  18.0972  19.8162  19.9256  21.3771

          k = 0.2000-0.3464-0.3588 (  1244 PWs)   bands (ev):

   -32.8659 -11.2921 -11.2157 -10.8341   5.5623   9.5817  10.9760  11.9107
    13.4787  18.0972  19.8162  19.9256  21.3771

          k = 0.2000-0.3464-0.1794 (  1254 PWs)   bands (ev):

   -32.8755 -11.2476 -11.1259 -10.8551   5.3336   9.6638  10.7834  12.4320
    14.4334  16.1549  19.4044  20.2202  21.4616

          k = 0.2000-0.1155 0.0000 (  1250 PWs)   bands (ev):

   -32.9320 -11.0990 -10.9415 -10.6854   3.7703  11.2619  12.6863  13.0387
    13.6696  17.8988  18.6433  19.0022  19.5926

          k = 0.2000-0.1155 0.1794 (  1241 PWs)   bands (ev):

   -32.9258 -11.2153 -10.9270 -10.6755   4.2054  11.0332  11.8530  12.9411
    14.4568  17.0800  17.4625  20.1022  20.3062

          k = 0.2000-0.1155 0.3588 (  1253 PWs)   bands (ev):

   -32.9159 -11.3949 -10.9056 -10.6594   5.0150  10.0270  11.7679  12.7045
    14.6869  17.3321  17.4194  18.7616  19.2630

          k = 0.2000-0.1155-0.3588 (  1253 PWs)   bands (ev):

   -32.9159 -11.3949 -10.9056 -10.6594   5.0150  10.0270  11.7679  12.7045
    14.6869  17.3321  17.4194  18.7616  19.2630

          k = 0.2000-0.1155-0.1794 (  1241 PWs)   bands (ev):

   -32.9258 -11.2153 -10.9270 -10.6755   4.2054  11.0332  11.8530  12.9411
    14.4568  17.0800  17.4625  20.1022  20.3062

          k = 0.4000 0.2309 0.0000 (  1252 PWs)   bands (ev):

   -32.8693 -11.4375 -11.0049 -10.8001   5.7090   8.3795  11.9439  12.7214
    13.2316  18.0715  18.2039  19.5379  20.1747

          k = 0.4000 0.2309 0.1794 (  1259 PWs)   bands (ev):

   -32.8635 -11.4178 -11.1062 -10.7880   5.8210   8.2769  12.1266  12.4114
    13.1475  17.3526  18.9672  20.5332  20.5592

          k = 0.4000 0.2309 0.3588 (  1246 PWs)   bands (ev):

   -32.8539 -11.3851 -11.2659 -10.7683   5.7145   8.8992  11.4002  11.7886
    13.4505  18.1902  20.0305  20.5335  21.5104

          k = 0.4000 0.2309-0.3588 (  1246 PWs)   bands (ev):

   -32.8539 -11.3851 -11.2659 -10.7683   5.7145   8.8992  11.4002  11.7886
    13.4505  18.1902  20.0305  20.5335  21.5104

          k = 0.4000 0.2309-0.1794 (  1259 PWs)   bands (ev):

   -32.8635 -11.4178 -11.1062 -10.7880   5.8210   8.2769  12.1266  12.4114
    13.1475  17.3526  18.9672  20.5332  20.5592

          k = 0.4000 0.4619 0.0000 (  1256 PWs)   bands (ev):

   -32.8499 -11.4123 -11.0250 -10.9757   7.3871   7.4540  10.1933  12.3631
    14.7204  15.4829  18.4177  19.8047  22.0174

          k = 0.4000 0.4619 0.1794 (  1262 PWs)   bands (ev):

   -32.8441 -11.3925 -11.0731 -11.0096   6.9715   7.6678  10.2633  12.7802
    13.3586  17.6232  19.1201  19.8988  21.7253

          k = 0.4000 0.4619 0.3588 (  1246 PWs)   bands (ev):

   -32.8347 -11.3601 -11.2260 -10.9850   6.3393   7.9279  10.7158  12.5405
    13.2777  19.2937  20.7600  20.9508  22.1010

          k = 0.4000 0.4619-0.3588 (  1246 PWs)   bands (ev):

   -32.8347 -11.3601 -11.2260 -10.9850   6.3393   7.9279  10.7158  12.5405
    13.2777  19.2937  20.7600  20.9508  22.1010

          k = 0.4000 0.4619-0.1794 (  1262 PWs)   bands (ev):

   -32.8441 -11.3925 -11.0731 -11.0096   6.9715   7.6678  10.2633  12.7802
    13.3586  17.6232  19.1201  19.8988  21.7253

          k = 0.4000 0.6928 0.0000 (  1256 PWs)   bands (ev):

   -32.8499 -11.4123 -11.0250 -10.9757   7.3871   7.4540  10.1933  12.3631
    14.7204  15.4829  18.4177  19.8047  22.0174

          k = 0.4000 0.6928 0.1794 (  1262 PWs)   bands (ev):

   -32.8441 -11.3925 -11.0731 -11.0096   6.9715   7.6678  10.2633  12.7802
    13.3586  17.6232  19.1201  19.8988  21.7253

          k = 0.4000 0.6928 0.3588 (  1246 PWs)   bands (ev):

   -32.8347 -11.3601 -11.2260 -10.9850   6.3393   7.9279  10.7158  12.5405
    13.2777  19.2937  20.7600  20.9508  22.1010

          k = 0.4000 0.6928-0.3588 (  1246 PWs)   bands (ev):

   -32.8347 -11.3601 -11.2260 -10.9850   6.3393   7.9279  10.7158  12.5405
    13.2777  19.2937  20.7600  20.9508  22.1010

          k = 0.4000 0.6928-0.1794 (  1262 PWs)   bands (ev):

   -32.8441 -11.3925 -11.0731 -11.0096   6.9715   7.6678  10.2633  12.7802
    13.3586  17.6232  19.1201  19.8988  21.7253

          k = 0.4000-0.2309 0.0000 (  1252 PWs)   bands (ev):

   -32.8693 -11.4375 -11.0049 -10.8001   5.7090   8.3795  11.9439  12.7214
    13.2316  18.0715  18.2039  19.5379  20.1747

          k = 0.4000-0.2309 0.1794 (  1259 PWs)   bands (ev):

   -32.8635 -11.4178 -11.1062 -10.7880   5.8210   8.2769  12.1266  12.4114
    13.1475  17.3526  18.9672  20.5332  20.5592

          k = 0.4000-0.2309 0.3588 (  1246 PWs)   bands (ev):

   -32.8539 -11.3851 -11.2659 -10.7683   5.7145   8.8992  11.4002  11.7886
    13.4505  18.1902  20.0305  20.5335  21.5104

          k = 0.4000-0.2309-0.3588 (  1246 PWs)   bands (ev):

   -32.8539 -11.3851 -11.2659 -10.7683   5.7145   8.8992  11.4002  11.7886
    13.4505  18.1902  20.0305  20.5335  21.5104

          k = 0.4000-0.2309-0.1794 (  1259 PWs)   bands (ev):

   -32.8635 -11.4178 -11.1062 -10.7880   5.8210   8.2769  12.1266  12.4114
    13.1475  17.3526  18.9672  20.5332  20.5592

          k = 0.4000 0.0000 0.0000 (  1255 PWs)   bands (ev):

   -32.8814 -11.2641 -11.0231 -10.8680   5.1287   9.6932  11.2477  12.2751
    15.1735  16.2331  16.8522  20.6818  22.0459

          k = 0.4000 0.0000 0.1794 (  1254 PWs)   bands (ev):

   -32.8755 -11.2476 -11.1259 -10.8551   5.3336   9.6638  10.7834  12.4320
    14.4334  16.1549  19.4044  20.2202  21.4616

          k = 0.4000 0.0000 0.3588 (  1244 PWs)   bands (ev):

   -32.8659 -11.2921 -11.2157 -10.8341   5.5623   9.5817  10.9760  11.9107
    13.4787  18.0972  19.8162  19.9256  21.3771

          k = 0.4000 0.0000-0.3588 (  1244 PWs)   bands (ev):

   -32.8659 -11.2921 -11.2157 -10.8341   5.5623   9.5817  10.9760  11.9107
    13.4787  18.0972  19.8162  19.9256  21.3771

          k = 0.4000 0.0000-0.1794 (  1254 PWs)   bands (ev):

   -32.8755 -11.2476 -11.1259 -10.8551   5.3336   9.6638  10.7834  12.4320
    14.4334  16.1549  19.4044  20.2202  21.4617

     the Fermi energy is    15.4457 ev

!    total energy              =    -330.35252148 Ry
     total all-electron energy =     -7297.220189 Ry
     estimated scf accuracy    <          8.5E-09 Ry
     smearing contrib. (-TS)   =      -0.00027639 Ry
     internal energy E=F+TS    =    -330.35224510 Ry

     The total energy is F=E-TS. E is the sum of the following terms:
     one-electron contribution =      -2.05415439 Ry
     hartree contribution      =      12.46456125 Ry
     xc contribution           =     -24.04497208 Ry
     ewald contribution        =     -96.27913793 Ry
     one-center paw contrib.   =    -220.43854194 Ry

     convergence has been achieved in   8 iterations

     Forces acting on atoms (cartesian axes, Ry/au):

     atom    1 type  1   force =    -0.00000004   -0.00000002   -0.00000208
     atom    2 type  2   force =     0.00000004    0.00000002    0.00000097
     atom    3 type  2   force =     0.00000001    0.00000000    0.00000111

     Total force =     0.000003     Total SCF correction =     0.000009
     SCF correction compared to forces is large: reduce conv_thr to get better values


     Computing stress (Cartesian axis) and pressure

          total   stress  (Ry/bohr**3)                   (kbar)     P=      -12.96
  -0.00009588  -0.00000000  -0.00000000          -14.10       -0.00       -0.00
  -0.00000000  -0.00009588   0.00000000           -0.00      -14.10        0.00
  -0.00000000   0.00000000  -0.00007248           -0.00        0.00      -10.66


     Writing all to output data dir ./tmp/zrb2-.save/ :
     XML data file, charge density, pseudopotentials, collected wavefunctions

     init_run     :      4.11s CPU      1.83s WALL (       1 calls)
     electrons    :     24.46s CPU      7.12s WALL (       1 calls)
     forces       :      0.37s CPU      0.13s WALL (       1 calls)
     stress       :      1.88s CPU      0.96s WALL (       1 calls)

     Called by init_run:
     wfcinit      :      1.77s CPU      0.47s WALL (       1 calls)
     potinit      :      1.08s CPU      0.50s WALL (       1 calls)
     hinit0       :      1.08s CPU      0.77s WALL (       1 calls)

     Called by electrons:
     c_bands      :     15.88s CPU      4.05s WALL (       8 calls)
     sum_band     :      3.77s CPU      1.25s WALL (       8 calls)
     v_of_rho     :      0.26s CPU      0.07s WALL (       9 calls)
     newd         :      1.07s CPU      0.58s WALL (       9 calls)
     PAW_pot      :      4.00s CPU      1.35s WALL (       9 calls)
     mix_rho      :      0.02s CPU      0.01s WALL (       8 calls)

     Called by c_bands:
     init_us_2    :      1.17s CPU      0.28s WALL (    1197 calls)
     cegterg      :     14.80s CPU      3.79s WALL (     504 calls)

     Called by *egterg:
     cdiaghg      :      1.68s CPU      0.40s WALL (    2129 calls)
     h_psi        :     12.57s CPU      3.25s WALL (    2192 calls)
     s_psi        :      0.29s CPU      0.08s WALL (    2192 calls)
     g_psi        :      0.06s CPU      0.02s WALL (    1625 calls)

     Called by h_psi:
     h_psi:calbec :      0.46s CPU      0.12s WALL (    2192 calls)
     vloc_psi     :     11.68s CPU      3.02s WALL (    2192 calls)
     add_vuspsi   :      0.36s CPU      0.09s WALL (    2192 calls)

     General routines
     calbec       :      0.87s CPU      0.22s WALL (    3767 calls)
     fft          :      0.73s CPU      0.41s WALL (     140 calls)
     ffts         :      0.52s CPU      0.28s WALL (      17 calls)
     fftw         :     10.69s CPU      2.77s WALL (   45452 calls)
     interpolate  :      0.53s CPU      0.29s WALL (       9 calls)

     Parallel routines

     PWSCF        :     32.19s CPU     10.88s WALL


   This run was terminated on:  14:17: 0  10Jun2025            

=------------------------------------------------------------------------------=
   JOB DONE.
=------------------------------------------------------------------------------=
