ITEM: TIMESTEP
0
ITEM: NUMBER OF ATOMS
144
ITEM: BOX BOUNDS xy xz yz pp pp ff
-6.3252579288457005e+00 1.2650515727996352e+01 -6.3252579288457005e+00
0.0000000000000000e+00 1.0955668034696915e+01 0.0000000000000000e+00
2.0000000000000000e+01 8.8911791966829043e+01 0.0000000000000000e+00
ITEM: ATOMS id type x y z
1 1 1.65067 0.823582 50.0064
2 1 0.0268406 3.56118 50
3 1 -1.52643 6.25817 50.0118
4 1 -3.20879 9.10231 50.0409
5 1 4.6053 0.856897 50.0496
6 1 3.1479 3.68583 50.0209
7 1 1.57905 6.48254 50.0304
8 1 0.0206859 9.09813 50.0282
9 1 7.98821 0.879641 49.9648
10 1 6.3594 3.53321 50.0383
11 1 4.86726 6.35002 50.0015
12 1 3.12483 8.99415 49.9708
13 1 11.1245 0.941641 50.0087
14 1 9.52968 3.51839 49.9803
15 1 7.9851 6.52147 49.9975
16 1 6.3185 9.18954 49.9853
17 1 -0.0433647 1.69584 50.0145
18 1 -1.58515 4.57481 50.0165
19 1 -3.06097 7.38461 50.039
20 1 -4.87745 9.94025 49.9809
21 1 3.22841 1.93516 50.044
22 1 1.48447 4.44552 50.0317
23 1 -0.0957066 7.36408 50.0453
24 1 -1.50741 10.1561 49.9528
25 1 6.37229 1.80224 49.9715
26 1 4.80124 4.57822 49.9561
27 1 3.01485 7.29161 50.0173
28 1 1.45113 9.90296 49.9544
29 1 9.60619 1.70303 49.9878
30 1 7.97664 4.70318 50.0049
31 1 6.30647 7.20404 50.0408
32 1 4.87573 10.0906 50.0436
33 2 3.22188 0.0859628 51.7745
34 2 1.45245 2.87729 51.8108
35 2 0.102652 5.45044 51.8051
36 2 -1.54219 8.25591 51.7693
37 2 6.18084 0.100777 51.7658
38 2 4.76216 2.66049 51.7832
39 2 3.30385 5.62665 51.7768
40 2 1.63749 8.31769 51.7696
41 2 3.30455 10.8585 51.8008
42 2 7.84275 2.82104 51.7478
43 2 6.448 5.36502 51.7575
44 2 4.7156 8.17291 51.7679
45 2 6.18185 10.8942 51.808
46 2 10.9757 2.70288 51.7875
47 2 -3.03149 5.37167 51.8181
48 2 7.8396 8.21822 51.8246
49 1 1.45373 1.03927 53.5282
50 1 0.140225 3.60651 53.5401
51 1 -1.71078 6.38651 53.5718
52 1 -3.25125 9.20741 53.5876
53 1 4.86856 1.01598 53.5411
54 1 3.10118 3.79843 53.6114
55 1 1.47198 6.36824 53.5573
56 1 -0.0748285 9.08741 53.5923
57 1 7.8916 0.922294 53.5862
58 1 6.44042 3.60053 53.6099
59 1 4.70633 6.3547 53.6127
60 1 3.2165 9.20074 53.604
61 1 10.9508 0.775106 53.5911
62 1 9.47888 3.72555 53.5344
63 1 7.96342 6.40123 53.5421
64 1 6.27779 9.09132 53.5238
65 1 -0.0772012 1.80526 53.5707
66 1 -1.51565 4.55932 53.518
67 1 -3.05008 7.17203 53.5855
68 1 -4.84847 9.99799 53.5988
69 1 3.26486 1.89523 53.5476
70 1 1.68562 4.7133 53.5671
71 1 -0.0715523 7.42501 53.5466
72 1 -1.50794 10.1818 53.5232
73 1 6.44393 1.87899 53.5444
74 1 4.71816 4.6456 53.6143
75 1 3.20775 7.3315 53.5836
76 1 1.52443 10.142 53.5731
77 1 9.45457 1.68149 53.5833
78 1 7.89408 4.59355 53.612
79 1 6.32267 7.29144 53.5543
80 1 4.79438 9.96489 53.5569
81 2 -3.04373 10.9554 55.365
82 2 1.68012 2.83611 55.3679
83 2 -0.0164335 5.58151 55.3773
84 2 -1.47351 8.11201 55.3348
85 2 6.29674 0.108511 55.364
86 2 4.73754 2.86196 55.3719
87 2 3.17854 5.57664 55.3864
88 2 1.6386 8.35621 55.3554
89 2 3.14513 10.8337 55.309
90 2 7.99544 2.61689 55.3366
91 2 6.34468 5.55488 55.3872
92 2 4.66676 8.15066 55.3962
93 2 -0.0369769 0.129535 55.3427
94 2 11.0018 2.8204 55.3532
95 2 9.41264 5.57369 55.3883
96 2 7.82911 8.07482 55.3967
97 1 1.59689 0.840101 57.1781
98 1 -0.130609 3.6099 57.1631
99 1 -1.43369 6.44362 57.1109
100 1 -3.22087 9.20006 57.1521
101 1 4.78812 0.869803 57.0824
102 1 3.24943 3.54571 57.1014
103 1 1.6043 6.31182 57.1122
104 1 0.0274303 9.05066 57.1042
105 1 7.77605 0.876289 57.119
106 1 6.37168 3.60482 57.1173
107 1 4.71391 6.2751 57.1154
108 1 3.17924 8.98833 57.101
109 1 11.1663 0.939067 57.1214
110 1 9.43908 3.61424 57.0801
111 1 7.97182 6.53307 57.1269
112 1 6.36814 9.2529 57.0923
113 1 -0.145763 1.78937 57.1255
114 1 -1.45693 4.62696 57.117
115 1 -3.09338 7.39449 57.1252
116 1 -4.83908 10.0118 57.1135
117 1 3.15091 1.8841 57.127
118 1 1.51929 4.60254 57.1327
119 1 0.114102 7.42059 57.1552
120 1 -1.72537 9.89617 57.1577
121 1 6.43682 1.80226 57.1325
122 1 4.71965 4.63006 57.0987
123 1 3.08398 7.20862 57.1458
124 1 1.57359 10.146 57.1741
125 1 9.42404 1.9055 57.1331
126 1 7.79274 4.51859 57.0888
127 1 6.425 7.32363 57.1523
128 1 4.71319 10.1177 57.0906
129 2 3.02869 0.0641396 58.943
130 2 1.62191 2.86537 58.9584
131 2 0.0396195 5.36451 58.917
132 2 -1.53846 8.08956 58.9237
133 2 6.21347 0.0366681 58.9385
134 2 4.81667 2.82222 58.8823
135 2 3.07556 5.44099 58.8713
136 2 1.70503 8.27332 58.9517
137 2 9.5162 0.00051161 58.8777
138 2 7.82989 2.7395 58.8924
139 2 6.35117 5.38236 58.9593
140 2 4.67187 8.31446 58.9177
141 2 0.00452385 0.133119 58.8891
142 2 -1.43256 2.70189 58.9534
143 2 -3.08407 5.56948 58.868
144 2 7.83592 8.17137 58.9541
ITEM: TIMESTEP
10
ITEM: NUMBER OF ATOMS
144
ITEM: BOX BOUNDS xy xz yz pp pp ff
-6.3252579288457005e+00 1.2650515727996352e+01 -6.3252579288457005e+00
0.0000000000000000e+00 1.0955668034696915e+01 0.0000000000000000e+00
2.0000000000000000e+01 8.8911791966829043e+01 0.0000000000000000e+00
ITEM: ATOMS id type x y z
1 1 1.65067 0.823582 50.0064
2 1 0.0268406 3.56118 50
3 1 -1.52643 6.25817 50.0118
4 1 -3.20879 9.10231 50.0409
5 1 4.6053 0.856897 50.0496
6 1 3.1479 3.68583 50.0209
7 1 1.57905 6.48254 50.0304
8 1 0.0206859 9.09813 50.0282
9 1 7.98821 0.879641 49.9648
10 1 6.3594 3.53321 50.0383
11 1 4.86726 6.35002 50.0015
12 1 3.12483 8.99415 49.9708
13 1 11.1245 0.941641 50.0087
14 1 9.52968 3.51839 49.9803
15 1 7.9851 6.52147 49.9975
16 1 6.3185 9.18954 49.9853
17 1 -0.0433647 1.69584 50.0145
18 1 -1.58515 4.57481 50.0165
19 1 -3.06097 7.38461 50.039
20 1 -4.87745 9.94025 49.9809
21 1 3.22841 1.93516 50.044
22 1 1.48447 4.44552 50.0317
23 1 -0.0957066 7.36408 50.0453
24 1 -1.50741 10.1561 49.9528
25 1 6.37229 1.80224 49.9715
26 1 4.80124 4.57822 49.9561
27 1 3.01485 7.29161 50.0173
28 1 1.45113 9.90296 49.9544
29 1 9.60619 1.70303 49.9878
30 1 7.97664 4.70318 50.0049
31 1 6.30647 7.20404 50.0408
32 1 4.87573 10.0906 50.0436
33 2 3.22188 0.0859628 51.7745
34 2 1.45245 2.87729 51.8108
35 2 0.102652 5.45044 51.8051
36 2 -1.54219 8.25591 51.7693
37 2 6.18084 0.100777 51.7658
38 2 4.76216 2.66049 51.7832
39 2 3.30385 5.62665 51.7768
40 2 1.63749 8.31769 51.7696
41 2 3.30455 10.8585 51.8008
42 2 7.84275 2.82104 51.7478
43 2 6.448 5.36502 51.7575
44 2 4.7156 8.17291 51.7679
45 2 6.18185 10.8942 51.808
46 2 10.9757 2.70288 51.7875
47 2 -3.03149 5.37167 51.8181
48 2 7.8396 8.21822 51.8246
49 1 1.52732 0.851672 53.1698
50 1 0.287869 3.59153 53.7957
51 1 -1.51412 6.32197 54.0544
52 1 -3.18601 9.33364 53.8064
53 1 5.03612 1.0131 54.0908
54 1 3.21025 3.67431 54.1442
55 1 1.35343 6.69128 54.0159
56 1 -0.0965396 9.17754 54.3314
57 1 7.75423 0.859664 54.3634
58 1 6.40514 3.47545 54.1115
59 1 4.66379 6.38 54.2043
60 1 2.98974 9.29556 54.1833
61 1 10.7979 0.726249 54.082
62 1 9.38227 3.71742 53.4638
63 1 7.9766 6.33126 52.8993
64 1 6.51162 9.05737 52.7843
65 1 -0.217167 1.72115 53.7278
66 1 -1.42665 4.45513 53.3347
67 1 -3.23084 7.32976 53.8585
68 1 -5.00361 10.0761 54.3765
69 1 3.25588 1.79287 53.4278
70 1 1.76729 4.83848 53.3801
71 1 -0.171793 7.50071 52.9613
72 1 -1.53725 10.1329 53.0303
73 1 6.51994 1.85362 52.8502
74 1 4.87914 4.54375 53.2733
75 1 3.15703 7.42149 53.3296
76 1 1.46515 10.1328 53.0738
77 1 9.30215 1.72774 53.2466
78 1 7.90349 4.82853 54.3182
79 1 6.48897 7.29885 54.0017
80 1 4.89648 9.76053 53.6467
81 2 -3.06718 10.9719 55.6579
82 2 1.65865 2.79101 55.6799
83 2 0.00281486 5.57236 55.7117
84 2 -1.52025 8.14088 55.7088
85 2 6.29838 0.0359214 55.724
86 2 4.72697 2.8218 55.685
87 2 3.17797 5.59969 55.7713
88 2 1.62288 8.30797 55.6779
89 2 3.12285 10.8814 55.7004
90 2 8.00948 2.6782 55.6566
91 2 6.30332 5.57065 55.72
92 2 4.69134 8.1277 55.7504
93 2 -0.0655056 0.113722 55.6915
94 2 10.9851 2.8063 55.6396
95 2 9.44948 5.54751 55.7526
96 2 7.84125 8.10974 55.697
97 1 1.56393 0.992795 57.3888
98 1 -0.00541344 3.63858 57.3305
99 1 -1.43328 6.41616 57.2405
100 1 -3.2006 9.13256 57.3938
101 1 4.72163 0.89446 57.2922
102 1 3.17061 3.62695 57.3454
103 1 1.56077 6.35058 57.224
104 1 0.0432443 9.14938 57.3056
105 1 7.87637 0.887439 57.382
106 1 6.32403 3.63539 57.2682
107 1 4.72932 6.39223 57.4239
108 1 3.14581 9.10092 57.2419
109 1 11.0681 0.940473 57.3453
110 1 9.48894 3.69518 57.4311
111 1 7.95038 6.41613 57.3882
112 1 6.26137 9.17885 57.3454
113 1 0.01869 1.8506 57.2371
114 1 -1.54735 4.58142 57.3429
115 1 -3.11692 7.32708 57.3009
116 1 -4.81235 10.0584 57.382
117 1 3.17984 1.87021 57.4768
118 1 1.54768 4.52564 57.2075
119 1 0.108861 7.28928 57.6089
120 1 -1.62675 9.99134 57.5372
121 1 6.30909 1.82604 57.3888
122 1 4.74103 4.5732 57.3189
123 1 3.17576 7.23862 57.4675
124 1 1.57729 10.0526 57.6014
125 1 9.48278 1.87019 57.5232
126 1 7.89526 4.59858 57.3861
127 1 6.29168 7.28716 57.4849
128 1 4.72525 10.0733 57.308
129 2 3.0739 0.0321664 58.6092
130 2 1.52007 2.86816 58.658
131 2 0.0788707 5.34434 58.6549
132 2 -1.56633 8.11493 58.6393
133 2 6.23053 0.0489536 58.6351
134 2 4.85079 2.79111 58.6154
135 2 3.03121 5.35196 58.6047
136 2 1.71583 8.22014 58.675
137 2 9.55442 -0.0481461 58.5939
138 2 7.79226 2.77971 58.6231
139 2 6.32696 5.33672 58.6718
140 2 4.66578 8.34288 58.6415
141 2 -0.040588 0.0940935 58.6013
142 2 -1.43827 2.71341 58.6531
143 2 -3.04181 5.59305 58.6017
144 2 7.88104 8.23699 58.6421
ITEM: TIMESTEP
20
ITEM: NUMBER OF ATOMS
144
ITEM: BOX BOUNDS xy xz yz pp pp ff
-6.3252579288457005e+00 1.2650515727996352e+01 -6.3252579288457005e+00
0.0000000000000000e+00 1.0955668034696915e+01 0.0000000000000000e+00
2.0000000000000000e+01 8.8911791966829043e+01 0.0000000000000000e+00
ITEM: ATOMS id type x y z
1 1 1.65067 0.823582 50.0064
2 1 0.0268406 3.56118 50
3 1 -1.52643 6.25817 50.0118
4 1 -3.20879 9.10231 50.0409
5 1 4.6053 0.856897 50.0496
6 1 3.1479 3.68583 50.0209
7 1 1.57905 6.48254 50.0304
8 1 0.0206859 9.09813 50.0282
9 1 7.98821 0.879641 49.9648
10 1 6.3594 3.53321 50.0383
11 1 4.86726 6.35002 50.0015
12 1 3.12483 8.99415 49.9708
13 1 11.1245 0.941641 50.0087
14 1 9.52968 3.51839 49.9803
15 1 7.9851 6.52147 49.9975
16 1 6.3185 9.18954 49.9853
17 1 -0.0433647 1.69584 50.0145
18 1 -1.58515 4.57481 50.0165
19 1 -3.06097 7.38461 50.039
20 1 -4.87745 9.94025 49.9809
21 1 3.22841 1.93516 50.044
22 1 1.48447 4.44552 50.0317
23 1 -0.0957066 7.36408 50.0453
24 1 -1.50741 10.1561 49.9528
25 1 6.37229 1.80224 49.9715
26 1 4.80124 4.57822 49.9561
27 1 3.01485 7.29161 50.0173
28 1 1.45113 9.90296 49.9544
29 1 9.60619 1.70303 49.9878
30 1 7.97664 4.70318 50.0049
31 1 6.30647 7.20404 50.0408
32 1 4.87573 10.0906 50.0436
33 2 3.22188 0.0859628 51.7745
34 2 1.45245 2.87729 51.8108
35 2 0.102652 5.45044 51.8051
36 2 -1.54219 8.25591 51.7693
37 2 6.18084 0.100777 51.7658
38 2 4.76216 2.66049 51.7832
39 2 3.30385 5.62665 51.7768
40 2 1.63749 8.31769 51.7696
41 2 3.30455 10.8585 51.8008
42 2 7.84275 2.82104 51.7478
43 2 6.448 5.36502 51.7575
44 2 4.7156 8.17291 51.7679
45 2 6.18185 10.8942 51.808
46 2 10.9757 2.70288 51.7875
47 2 -3.03149 5.37167 51.8181
48 2 7.8396 8.21822 51.8246
49 1 1.64376 0.712987 52.5979
50 1 0.310871 3.6667 54.3402
51 1 -1.27468 6.42363 54.4811
52 1 -3.37475 9.49257 53.8685
53 1 5.21297 0.903376 54.4815
54 1 3.35524 3.7719 54.6054
55 1 1.24204 6.86056 54.5133
56 1 -0.203223 9.05872 54.6069
57 1 7.63885 0.867442 54.6473
58 1 6.33782 3.31741 54.3587
59 1 4.53069 6.32765 54.6205
60 1 2.80454 9.39388 54.5531
61 1 10.3783 0.60243 54.5329
62 1 9.1964 3.69162 53.6587
63 1 8.35811 6.0273 52.5757
64 1 6.77002 8.91638 52.1583
65 1 -0.280283 1.58392 53.7364
66 1 -1.52341 4.61752 52.8968
67 1 -3.25996 7.31113 54.0224
68 1 -5.37968 10.1986 54.675
69 1 3.37568 1.86091 53.3509
70 1 1.69295 4.86664 52.915
71 1 -0.356283 7.6416 52.2952
72 1 -1.46164 9.8998 52.7057
73 1 6.82027 1.81873 52.0689
74 1 5.19882 4.70974 52.4662
75 1 3.14802 7.4926 52.9265
76 1 1.4267 10.276 52.7195
77 1 9.31879 1.67448 52.9085
78 1 7.77891 5.13927 54.7127
79 1 6.59982 7.46889 54.2303
80 1 5.02412 9.62892 53.8598
81 2 3.20595 0.0653133 55.5395
82 2 1.65091 2.75162 55.6299
83 2 0.021843 5.57022 55.6094
84 2 -1.5395 8.19146 55.6505
85 2 6.32237 0.0834354 55.6343
86 2 4.76268 2.80738 55.5966
87 2 3.20413 5.64188 55.6436
88 2 1.60619 8.2972 55.6111
89 2 3.18194 10.7819 55.6559
90 2 7.94362 2.72842 55.553
91 2 6.26477 5.52097 55.6446
92 2 4.71405 8.13875 55.6014
93 2 12.6435 -0.0476186 55.7137
94 2 11.0394 2.79374 55.5411
95 2 -3.20794 5.48626 55.6595
96 2 7.79305 8.15767 55.5947
97 1 1.56071 0.903608 57.5657
98 1 -0.0311443 3.65161 57.5792
99 1 -1.57221 6.4097 57.6519
100 1 -3.14598 9.13203 57.6299
101 1 4.79767 0.88228 57.7034
102 1 3.17441 3.65534 57.6907
103 1 1.60651 6.45327 57.6575
104 1 0.0579314 9.15916 57.7594
105 1 7.9801 0.863498 57.7585
106 1 6.37547 3.62447 57.6714
107 1 4.75144 6.44768 57.755
108 1 3.15127 9.23307 57.7032
109 1 11.0397 0.892941 57.6206
110 1 9.48682 3.6201 57.6087
111 1 7.90752 6.42513 57.6801
112 1 6.2714 9.13054 57.6437
113 1 -0.0205051 1.79658 57.5358
114 1 -1.58578 4.54327 57.5583
115 1 -3.15182 7.32553 57.6279
116 1 -4.75772 10.0637 57.7218
117 1 3.16029 1.81638 57.6122
118 1 1.59645 4.59157 57.5475
119 1 0.0559326 7.35029 57.7098
120 1 -1.52613 10.0568 57.6516
121 1 6.34224 1.79554 57.6614
122 1 4.74818 4.5754 57.622
123 1 3.1507 7.36219 57.6243
124 1 1.63292 10.0725 57.6724
125 1 9.47264 1.78642 57.633
126 1 7.93007 4.48857 57.7502
127 1 6.27919 7.33161 57.6754
128 1 4.70254 10.0733 57.5797
129 2 3.16384 -0.00533854 58.434
130 2 1.56001 2.7429 58.3599
131 2 0.0185393 5.47904 58.3724
132 2 -1.57579 8.22947 58.4444
133 2 6.31381 0.0496208 58.444
134 2 4.78009 2.74578 58.4198
135 2 3.16986 5.50669 58.4063
136 2 1.65104 8.20766 58.4413
137 2 3.17597 10.8748 58.4216
138 2 7.87151 2.76259 58.4264
139 2 6.32206 5.46932 58.4279
140 2 4.71015 8.23802 58.4147
141 2 12.635 -0.00790697 58.3718
142 2 -1.57533 2.74311 58.358
143 2 -3.15112 5.48443 58.4049
144 2 7.89242 8.22403 58.442
ITEM: TIMESTEP
30
ITEM: NUMBER OF ATOMS
144
ITEM: BOX BOUNDS xy xz yz pp pp ff
-6.3252579288457005e+00 1.2650515727996352e+01 -6.3252579288457005e+00
0.0000000000000000e+00 1.0955668034696915e+01 0.0000000000000000e+00
2.0000000000000000e+01 8.8911791966829043e+01 0.0000000000000000e+00
ITEM: ATOMS id type x y z
1 1 1.65067 0.823582 50.0064
2 1 0.0268406 3.56118 50
3 1 -1.52643 6.25817 50.0118
4 1 -3.20879 9.10231 50.0409
5 1 4.6053 0.856897 50.0496
6 1 3.1479 3.68583 50.0209
7 1 1.57905 6.48254 50.0304
8 1 0.0206859 9.09813 50.0282
9 1 7.98821 0.879641 49.9648
10 1 6.3594 3.53321 50.0383
11 1 4.86726 6.35002 50.0015
12 1 3.12483 8.99415 49.9708
13 1 11.1245 0.941641 50.0087
14 1 9.52968 3.51839 49.9803
15 1 7.9851 6.52147 49.9975
16 1 6.3185 9.18954 49.9853
17 1 -0.0433647 1.69584 50.0145
18 1 -1.58515 4.57481 50.0165
19 1 -3.06097 7.38461 50.039
20 1 -4.87745 9.94025 49.9809
21 1 3.22841 1.93516 50.044
22 1 1.48447 4.44552 50.0317
23 1 -0.0957066 7.36408 50.0453
24 1 -1.50741 10.1561 49.9528
25 1 6.37229 1.80224 49.9715
26 1 4.80124 4.57822 49.9561
27 1 3.01485 7.29161 50.0173
28 1 1.45113 9.90296 49.9544
29 1 9.60619 1.70303 49.9878
30 1 7.97664 4.70318 50.0049
31 1 6.30647 7.20404 50.0408
32 1 4.87573 10.0906 50.0436
33 2 3.22188 0.0859628 51.7745
34 2 1.45245 2.87729 51.8108
35 2 0.102652 5.45044 51.8051
36 2 -1.54219 8.25591 51.7693
37 2 6.18084 0.100777 51.7658
38 2 4.76216 2.66049 51.7832
39 2 3.30385 5.62665 51.7768
40 2 1.63749 8.31769 51.7696
41 2 3.30455 10.8585 51.8008
42 2 7.84275 2.82104 51.7478
43 2 6.448 5.36502 51.7575
44 2 4.7156 8.17291 51.7679
45 2 6.18185 10.8942 51.808
46 2 10.9757 2.70288 51.7875
47 2 -3.03149 5.37167 51.8181
48 2 7.8396 8.21822 51.8246
49 1 1.77734 0.707897 52.3982
50 1 0.291363 3.63713 54.4144
51 1 -1.18354 6.42248 54.5174
52 1 -3.4565 9.55617 53.8657
53 1 5.40082 0.775834 54.4748
54 1 3.45344 3.88644 54.5308
55 1 1.28201 6.93063 54.5075
56 1 -0.252013 9.02767 54.5388
57 1 7.48195 0.879267 54.545
58 1 6.36587 3.18337 54.375
59 1 4.46164 6.26197 54.6368
60 1 2.8892 9.76441 54.7019
61 1 10.0765 0.254621 54.5042
62 1 9.12661 3.62288 53.7116
63 1 8.68944 5.89691 52.4473
64 1 6.66657 8.99983 52.1929
65 1 -0.32644 1.5367 53.7503
66 1 -1.4901 4.57122 52.9946
67 1 -3.22298 7.30575 54.06
68 1 -5.6164 10.3292 54.7557
69 1 3.42422 1.88684 53.4035
70 1 1.55587 4.88913 52.7112
71 1 -0.303844 7.73589 52.305
72 1 -1.40961 9.59075 52.5521
73 1 6.8859 1.57746 51.7898
74 1 5.44858 4.89862 52.1122
75 1 3.11544 7.56223 52.8364
76 1 1.3593 10.3341 52.7113
77 1 9.37296 1.68255 52.9089
78 1 7.72925 5.24888 54.6962
79 1 6.67025 7.53202 54.2887
80 1 4.99079 9.61745 53.9362
81 2 3.17753 0.095151 55.4973
82 2 1.63314 2.74029 55.6199
83 2 0.0385964 5.62869 55.6343
84 2 -1.5298 8.22034 55.6855
85 2 6.34225 0.25824 55.6648
86 2 4.82544 2.81031 55.6108
87 2 3.24459 5.70622 55.6989
88 2 1.62193 8.29974 55.6596
89 2 3.22744 10.6992 55.767
90 2 7.78938 2.75693 55.4942
91 2 6.2225 5.51894 55.715
92 2 4.70421 8.12045 55.5615
93 2 6.32779 10.8004 55.845
94 2 -1.58864 2.76812 55.5133
95 2 9.40425 5.46601 55.6644
96 2 7.69342 8.13968 55.5755
97 1 1.55715 0.839129 57.5921
98 1 -0.301731 3.5513 57.7474
99 1 -1.59996 6.41922 57.7083
100 1 -3.13641 9.14939 57.6726
101 1 4.96728 0.737344 57.8121
102 1 3.19865 3.61081 57.7481
103 1 1.61071 6.5882 57.7382
104 1 0.0399009 9.19181 57.8
105 1 7.95339 0.826536 57.6935
106 1 6.56131 3.45968 57.8528
107 1 4.78266 6.65141 57.8379
108 1 3.18471 9.38968 57.8039
109 1 11.0125 0.760259 57.5787
110 1 9.47993 3.69202 57.6466
111 1 7.89769 6.41099 57.736
112 1 6.27742 9.1746 57.7187
113 1 -0.0332691 1.95725 57.5657
114 1 -1.51826 4.27296 57.6969
115 1 -3.14856 7.27788 57.6693
116 1 -4.90735 10.117 57.748
117 1 3.16721 1.85521 57.645
118 1 1.57681 4.59554 57.5847
119 1 0.121897 7.40693 57.6916
120 1 -1.37768 10.167 57.6985
121 1 6.36468 1.90177 57.7307
122 1 4.76558 4.58351 57.6774
123 1 3.12733 7.41036 57.722
124 1 2.10158 10.0028 57.8576
125 1 9.47856 1.7123 57.7293
126 1 7.90407 4.25417 57.8907
127 1 6.15932 7.36622 57.7298
128 1 4.25844 9.97245 57.8043
129 2 3.1709 0.00323234 58.4352
130 2 1.54934 2.74958 58.3988
131 2 0.0270947 5.51219 58.4004
132 2 -1.52219 8.22743 58.4695
133 2 6.13605 0.0120496 58.3712
134 2 4.76679 2.77008 58.4375
135 2 3.20877 5.57647 58.486
136 2 1.80618 8.19427 58.3413
137 2 3.18339 10.7103 57.975
138 2 7.76407 2.96632 58.1461
139 2 6.27075 5.51476 58.4344
140 2 4.70589 8.15576 58.1977
141 2 6.45057 10.7446 58.3423
142 2 -1.38591 2.99017 58.164
143 2 9.47526 5.47263 58.4199
144 2 7.82687 8.23888 58.4855
ITEM: TIMESTEP
40
ITEM: NUMBER OF ATOMS
144
ITEM: BOX BOUNDS xy xz yz pp pp ff
-6.3252579288457005e+00 1.2650515727996352e+01 -6.3252579288457005e+00
0.0000000000000000e+00 1.0955668034696915e+01 0.0000000000000000e+00
2.0000000000000000e+01 8.8911791966829043e+01 0.0000000000000000e+00
ITEM: ATOMS id type x y z
1 1 1.65067 0.823582 50.0064
2 1 0.0268406 3.56118 50
3 1 -1.52643 6.25817 50.0118
4 1 -3.20879 9.10231 50.0409
5 1 4.6053 0.856897 50.0496
6 1 3.1479 3.68583 50.0209
7 1 1.57905 6.48254 50.0304
8 1 0.0206859 9.09813 50.0282
9 1 7.98821 0.879641 49.9648
10 1 6.3594 3.53321 50.0383
11 1 4.86726 6.35002 50.0015
12 1 3.12483 8.99415 49.9708
13 1 11.1245 0.941641 50.0087
14 1 9.52968 3.51839 49.9803
15 1 7.9851 6.52147 49.9975
16 1 6.3185 9.18954 49.9853
17 1 -0.0433647 1.69584 50.0145
18 1 -1.58515 4.57481 50.0165
19 1 -3.06097 7.38461 50.039
20 1 -4.87745 9.94025 49.9809
21 1 3.22841 1.93516 50.044
22 1 1.48447 4.44552 50.0317
23 1 -0.0957066 7.36408 50.0453
24 1 -1.50741 10.1561 49.9528
25 1 6.37229 1.80224 49.9715
26 1 4.80124 4.57822 49.9561
27 1 3.01485 7.29161 50.0173
28 1 1.45113 9.90296 49.9544
29 1 9.60619 1.70303 49.9878
30 1 7.97664 4.70318 50.0049
31 1 6.30647 7.20404 50.0408
32 1 4.87573 10.0906 50.0436
33 2 3.22188 0.0859628 51.7745
34 2 1.45245 2.87729 51.8108
35 2 0.102652 5.45044 51.8051
36 2 -1.54219 8.25591 51.7693
37 2 6.18084 0.100777 51.7658
38 2 4.76216 2.66049 51.7832
39 2 3.30385 5.62665 51.7768
40 2 1.63749 8.31769 51.7696
41 2 3.30455 10.8585 51.8008
42 2 7.84275 2.82104 51.7478
43 2 6.448 5.36502 51.7575
44 2 4.7156 8.17291 51.7679
45 2 6.18185 10.8942 51.808
46 2 10.9757 2.70288 51.7875
47 2 -3.03149 5.37167 51.8181
48 2 7.8396 8.21822 51.8246
49 1 1.79116 0.704568 52.3788
50 1 0.266853 3.62672 54.4276
51 1 -1.17627 6.43066 54.5181
52 1 -3.46652 9.56194 53.8685
53 1 5.64698 0.665648 54.6464
54 1 3.46531 3.88989 54.5333
55 1 1.29527 6.9743 54.5498
56 1 -0.241561 9.03987 54.5313
57 1 7.40952 0.853574 54.5047
58 1 6.53707 3.10923 54.4895
59 1 4.46765 6.2809 54.6616
60 1 2.97717 10.1484 55.1734
61 1 9.99264 0.00453079 54.6089
62 1 9.10968 3.60339 53.7272
63 1 8.63818 5.92011 52.4849
64 1 6.67101 8.99676 52.1907
65 1 -0.34482 1.50758 53.7771
66 1 -1.48431 4.5643 53.0051
67 1 -3.22178 7.30578 54.0714
68 1 -5.70549 10.3714 54.8933
69 1 3.42993 1.88867 53.4118
70 1 1.54102 4.89381 52.6924
71 1 -0.302853 7.74213 52.3114
72 1 -1.40836 9.55947 52.5436
73 1 6.88791 1.55467 51.7758
74 1 5.3701 4.87125 52.125
75 1 3.1102 7.58178 52.831
76 1 1.36679 10.3529 52.7477
77 1 9.38427 1.63352 52.973
78 1 7.72916 5.24115 54.6952
79 1 6.67689 7.53764 54.297
80 1 4.88006 9.73594 54.0318
81 2 3.17412 0.0952249 55.4923
82 2 1.64194 2.74023 55.6159
83 2 0.0436324 5.63177 55.6329
84 2 -1.5339 8.21661 55.6865
85 2 6.37265 0.447367 55.6755
86 2 4.81471 2.82065 55.6048
87 2 3.24556 5.70772 55.7098
88 2 1.57848 8.23137 55.6339
89 2 3.17351 11.1868 55.8703
90 2 7.65946 2.75872 55.5147
91 2 6.21182 5.52083 55.7212
92 2 4.73876 8.03251 55.4715
93 2 6.23593 10.8218 55.9034
94 2 -1.5642 2.77714 55.5101
95 2 9.3947 5.4648 55.66
96 2 7.68647 8.13715 55.5757
97 1 1.38978 0.524817 57.6742
98 1 -0.486466 3.55629 57.713
99 1 -1.63245 6.264 57.7408
100 1 -3.12197 9.19457 57.6874
101 1 4.98807 0.534433 57.8594
102 1 3.22442 3.54827 57.7875
103 1 1.6094 6.84 57.8079
104 1 0.0626255 9.49135 57.8569
105 1 7.98402 0.55663 57.5724
106 1 6.82157 3.55023 57.8143
107 1 4.76002 6.73325 57.8403
108 1 3.10502 9.27503 57.7376
109 1 11.0491 0.461203 57.5771
110 1 9.46615 4.04741 57.7089
111 1 7.93076 6.26428 57.7807
112 1 6.26469 9.42794 57.8122
113 1 -0.12547 2.30783 57.6772
114 1 -1.44351 4.02982 57.7611
115 1 -3.14373 7.1877 57.7141
116 1 -5.14702 10.1691 57.795
117 1 3.20249 1.88874 57.6891
118 1 1.44079 4.55466 57.6153
119 1 0.369765 7.41564 57.765
120 1 -1.08296 10.2315 57.8157
121 1 6.46923 2.29326 57.8024
122 1 4.88628 4.53409 57.714
123 1 3.13872 7.73547 57.8509
124 1 2.3369 9.83193 57.728
125 1 9.47419 1.54617 57.5933
126 1 7.75804 3.98973 57.809
127 1 5.98942 7.45055 57.7857
128 1 4.1926 9.92543 57.7076
129 2 3.16142 0.000466903 58.4036
130 2 1.68009 2.76248 58.3964
131 2 0.0538577 5.57613 58.3638
132 2 -1.54202 8.17772 58.4711
133 2 6.20642 -0.0457822 57.9985
134 2 4.62026 2.82004 58.4062
135 2 3.2132 5.58048 58.497
136 2 1.68788 7.89655 58.1729
137 2 3.17525 10.6041 57.9223
138 2 7.86189 2.68486 57.8292
139 2 6.21393 5.60852 58.39
140 2 4.79213 8.03236 58.1399
141 2 6.37296 10.8397 57.9688
142 2 -1.49699 2.71033 57.7383
143 2 9.47602 5.67758 58.3831
144 2 7.82318 8.2105 58.4887
ITEM: TIMESTEP
50
ITEM: NUMBER OF ATOMS
144
ITEM: BOX BOUNDS xy xz yz pp pp ff
-6.3252579288457005e+00 1.2650515727996352e+01 -6.3252579288457005e+00
0.0000000000000000e+00 1.0955668034696915e+01 0.0000000000000000e+00
2.0000000000000000e+01 8.8911791966829043e+01 0.0000000000000000e+00
ITEM: ATOMS id type x y z
1 1 1.65067 0.823582 50.0064
2 1 0.0268406 3.56118 50
3 1 -1.52643 6.25817 50.0118
4 1 -3.20879 9.10231 50.0409
5 1 4.6053 0.856897 50.0496
6 1 3.1479 3.68583 50.0209
7 1 1.57905 6.48254 50.0304
8 1 0.0206859 9.09813 50.0282
9 1 7.98821 0.879641 49.9648
10 1 6.3594 3.53321 50.0383
11 1 4.86726 6.35002 50.0015
12 1 3.12483 8.99415 49.9708
13 1 11.1245 0.941641 50.0087
14 1 9.52968 3.51839 49.9803
15 1 7.9851 6.52147 49.9975
16 1 6.3185 9.18954 49.9853
17 1 -0.0433647 1.69584 50.0145
18 1 -1.58515 4.57481 50.0165
19 1 -3.06097 7.38461 50.039
20 1 -4.87745 9.94025 49.9809
21 1 3.22841 1.93516 50.044
22 1 1.48447 4.44552 50.0317
23 1 -0.0957066 7.36408 50.0453
24 1 -1.50741 10.1561 49.9528
25 1 6.37229 1.80224 49.9715
26 1 4.80124 4.57822 49.9561
27 1 3.01485 7.29161 50.0173
28 1 1.45113 9.90296 49.9544
29 1 9.60619 1.70303 49.9878
30 1 7.97664 4.70318 50.0049
31 1 6.30647 7.20404 50.0408
32 1 4.87573 10.0906 50.0436
33 2 3.22188 0.0859628 51.7745
34 2 1.45245 2.87729 51.8108
35 2 0.102652 5.45044 51.8051
36 2 -1.54219 8.25591 51.7693
37 2 6.18084 0.100777 51.7658
38 2 4.76216 2.66049 51.7832
39 2 3.30385 5.62665 51.7768
40 2 1.63749 8.31769 51.7696
41 2 3.30455 10.8585 51.8008
42 2 7.84275 2.82104 51.7478
43 2 6.448 5.36502 51.7575
44 2 4.7156 8.17291 51.7679
45 2 6.18185 10.8942 51.808
46 2 10.9757 2.70288 51.7875
47 2 -3.03149 5.37167 51.8181
48 2 7.8396 8.21822 51.8246
49 1 1.79179 0.704185 52.3774
50 1 0.258436 3.62387 54.4329
51 1 -1.17494 6.43274 54.5175
52 1 -3.46704 9.56243 53.8691
53 1 5.7156 0.644729 54.6865
54 1 3.46737 3.88833 54.5346
55 1 1.29697 6.9876 54.5638
56 1 -0.237527 9.04849 54.5309
57 1 7.37819 0.844219 54.5026
58 1 6.60624 3.08209 54.5426
59 1 4.47113 6.28905 54.6677
60 1 2.94688 10.1711 55.2535
61 1 10.0197 -0.00480648 54.6732
62 1 9.10534 3.59734 53.7313
63 1 8.63128 5.92282 52.4898
64 1 6.67149 8.99632 52.1905
65 1 -0.350059 1.50015 53.787
66 1 -1.48396 4.56382 53.0053
67 1 -3.22217 7.30543 54.0734
68 1 -5.71893 10.374 54.9196
69 1 3.43111 1.88842 53.4128
70 1 1.53982 4.89463 52.6914
71 1 -0.302668 7.74205 52.3132
72 1 -1.40798 9.55782 52.5449
73 1 6.88884 1.55357 51.7773
74 1 5.36152 4.86774 52.128
75 1 3.10971 7.586 52.8309
76 1 1.37097 10.3585 52.7603
77 1 9.38532 1.61456 53
78 1 7.72973 5.23309 54.7001
79 1 6.67698 7.5374 54.2977
80 1 4.83166 9.79384 54.0723
81 2 3.17337 0.0944359 55.4919
82 2 1.64503 2.73984 55.6138
83 2 0.0437438 5.63187 55.6304
84 2 -1.5356 8.21446 55.6858
85 2 6.42855 0.491904 55.7214
86 2 4.80986 2.82226 55.603
87 2 3.24486 5.70673 55.7111
88 2 1.56072 8.20448 55.6009
89 2 3.14739 11.1942 55.8675
90 2 7.60924 2.75777 55.5193
91 2 6.21148 5.52061 55.7205
92 2 4.75197 8.00239 55.4375
93 2 6.19787 10.8309 55.9171
94 2 -1.55243 2.78274 55.5104
95 2 9.39164 5.46326 55.6574
96 2 7.68654 8.13703 55.5759
97 1 1.33348 0.478181 57.6893
98 1 -0.49311 3.52199 57.706
99 1 -1.6399 6.20919 57.7524
100 1 -3.11517 9.21339 57.6928
101 1 5.01824 0.490624 57.8547
102 1 3.239 3.52943 57.8006
103 1 1.63211 6.82858 57.8134
104 1 0.0271922 9.57083 57.8564
105 1 7.98268 0.505689 57.523
106 1 6.87459 3.51931 57.8052
107 1 4.73625 6.73756 57.835
108 1 2.97369 9.2447 57.7441
109 1 10.9515 0.349499 57.5813
110 1 9.37877 4.0463 57.7246
111 1 7.93784 6.19963 57.7931
112 1 6.24149 9.49882 57.8174
113 1 -0.148523 2.33715 57.6989
114 1 -1.43704 4.05212 57.749
115 1 -3.14339 7.15275 57.734
116 1 -5.19466 10.1512 57.7802
117 1 3.21966 1.8902 57.703
118 1 1.39315 4.54649 57.6248
119 1 0.389528 7.41011 57.789
120 1 -1.08488 10.1926 57.7994
121 1 6.51101 2.37149 57.8032
122 1 4.94147 4.51277 57.7287
123 1 3.16486 7.77521 57.8821
124 1 2.60937 9.77031 57.6553
125 1 9.52102 1.54064 57.5832
126 1 7.76526 4.00786 57.7847
127 1 5.959 7.46033 57.7941
128 1 4.14519 9.92467 57.6671
129 2 3.15415 0.0009086 58.3949
130 2 1.71226 2.7624 58.3914
131 2 0.0605829 5.60211 58.3521
132 2 -1.54647 8.1613 58.4693
133 2 6.29304 -0.0261179 57.974
134 2 4.56934 2.82909 58.3918
135 2 3.21435 5.57864 58.4987
136 2 1.66976 7.87899 58.1473
137 2 3.2186 10.7498 57.8682
138 2 7.86287 2.68647 57.7267
139 2 6.19777 5.64157 58.3731
140 2 4.7894 8.03994 58.1414
141 2 6.3755 10.8652 57.9451
142 2 -1.51767 2.70456 57.6794
143 2 9.478 5.76662 58.371
144 2 7.82446 8.20001 58.4894
ITEM: TIMESTEP
60
ITEM: NUMBER OF ATOMS
144
ITEM: BOX BOUNDS xy xz yz pp pp ff
-6.3252579288457005e+00 1.2650515727996352e+01 -6.3252579288457005e+00
0.0000000000000000e+00 1.0955668034696915e+01 0.0000000000000000e+00
2.0000000000000000e+01 8.8911791966829043e+01 0.0000000000000000e+00
ITEM: ATOMS id type x y z
1 1 1.65067 0.823582 50.0064
2 1 0.0268406 3.56118 50
3 1 -1.52643 6.25817 50.0118
4 1 -3.20879 9.10231 50.0409
5 1 4.6053 0.856897 50.0496
6 1 3.1479 3.68583 50.0209
7 1 1.57905 6.48254 50.0304
8 1 0.0206859 9.09813 50.0282
9 1 7.98821 0.879641 49.9648
10 1 6.3594 3.53321 50.0383
11 1 4.86726 6.35002 50.0015
12 1 3.12483 8.99415 49.9708
13 1 11.1245 0.941641 50.0087
14 1 9.52968 3.51839 49.9803
15 1 7.9851 6.52147 49.9975
16 1 6.3185 9.18954 49.9853
17 1 -0.0433647 1.69584 50.0145
18 1 -1.58515 4.57481 50.0165
19 1 -3.06097 7.38461 50.039
20 1 -4.87745 9.94025 49.9809
21 1 3.22841 1.93516 50.044
22 1 1.48447 4.44552 50.0317
23 1 -0.0957066 7.36408 50.0453
24 1 -1.50741 10.1561 49.9528
25 1 6.37229 1.80224 49.9715
26 1 4.80124 4.57822 49.9561
27 1 3.01485 7.29161 50.0173
28 1 1.45113 9.90296 49.9544
29 1 9.60619 1.70303 49.9878
30 1 7.97664 4.70318 50.0049
31 1 6.30647 7.20404 50.0408
32 1 4.87573 10.0906 50.0436
33 2 3.22188 0.0859628 51.7745
34 2 1.45245 2.87729 51.8108
35 2 0.102652 5.45044 51.8051
36 2 -1.54219 8.25591 51.7693
37 2 6.18084 0.100777 51.7658
38 2 4.76216 2.66049 51.7832
39 2 3.30385 5.62665 51.7768
40 2 1.63749 8.31769 51.7696
41 2 3.30455 10.8585 51.8008
42 2 7.84275 2.82104 51.7478
43 2 6.448 5.36502 51.7575
44 2 4.7156 8.17291 51.7679
45 2 6.18185 10.8942 51.808
46 2 10.9757 2.70288 51.7875
47 2 -3.03149 5.37167 51.8181
48 2 7.8396 8.21822 51.8246
49 1 1.79184 0.704083 52.3772
50 1 0.252305 3.62196 54.4377
51 1 -1.17354 6.43446 54.5176
52 1 -3.46661 9.5628 53.8697
53 1 5.7654 0.634771 54.7252
54 1 3.46968 3.88588 54.536
55 1 1.29751 6.9999 54.5753
56 1 -0.233734 9.06329 54.5353
57 1 7.34795 0.834203 54.5155
58 1 6.6608 3.05909 54.5921
59 1 4.47317 6.29548 54.673
60 1 2.94576 10.1799 55.1595
61 1 3.72937 10.9292 54.77
62 1 9.10076 3.5905 53.7363
63 1 8.62988 5.92313 52.4907
64 1 6.67169 8.99614 52.1904
65 1 -0.356107 1.49437 53.7958
66 1 -1.48395 4.56375 53.0051
67 1 -3.22234 7.30526 54.0744
68 1 -5.72866 10.3741 54.9363
69 1 3.43193 1.88778 53.4134
70 1 1.53957 4.89506 52.6914
71 1 -0.302491 7.74205 52.3146
72 1 -1.40747 9.55779 52.5465
73 1 6.89004 1.55323 51.7792
74 1 5.36016 4.86703 52.1286
75 1 3.10926 7.58786 52.8315
76 1 1.37383 10.3625 52.7723
77 1 9.38267 1.60171 53.0249
78 1 7.72987 5.22159 54.7084
79 1 6.67586 7.53755 54.2986
80 1 4.78497 9.854 54.1186