ITEM: TIMESTEP
0
ITEM: NUMBER OF ATOMS
144
ITEM: BOX BOUNDS xy xz yz pp pp ff
-6.3252579288457005e+00 1.2650515727996352e+01 -6.3252579288457005e+00
0.0000000000000000e+00 1.0955668034696915e+01 0.0000000000000000e+00
2.0000000000000000e+01 8.8911791966829043e+01 0.0000000000000000e+00
ITEM: ATOMS id type x y z
1 1 1.65067 0.823582 50.0064
2 1 0.0268406 3.56118 50
3 1 -1.52643 6.25817 50.0118
4 1 -3.20879 9.10231 50.0409
5 1 4.6053 0.856897 50.0496
6 1 3.1479 3.68583 50.0209
7 1 1.57905 6.48254 50.0304
8 1 0.0206859 9.09813 50.0282
9 1 7.98821 0.879641 49.9648
10 1 6.3594 3.53321 50.0383
11 1 4.86726 6.35002 50.0015
12 1 3.12483 8.99415 49.9708
13 1 11.1245 0.941641 50.0087
14 1 9.52968 3.51839 49.9803
15 1 7.9851 6.52147 49.9975
16 1 6.3185 9.18954 49.9853
17 1 -0.0433647 1.69584 50.0145
18 1 -1.58515 4.57481 50.0165
19 1 -3.06097 7.38461 50.039
20 1 -4.87745 9.94025 49.9809
21 1 3.22841 1.93516 50.044
22 1 1.48447 4.44552 50.0317
23 1 -0.0957066 7.36408 50.0453
24 1 -1.50741 10.1561 49.9528
25 1 6.37229 1.80224 49.9715
26 1 4.80124 4.57822 49.9561
27 1 3.01485 7.29161 50.0173
28 1 1.45113 9.90296 49.9544
29 1 9.60619 1.70303 49.9878
30 1 7.97664 4.70318 50.0049
31 1 6.30647 7.20404 50.0408
32 1 4.87573 10.0906 50.0436
33 2 3.22188 0.0859628 51.7745
34 2 1.45245 2.87729 51.8108
35 2 0.102652 5.45044 51.8051
36 2 -1.54219 8.25591 51.7693
37 2 6.18084 0.100777 51.7658
38 2 4.76216 2.66049 51.7832
39 2 3.30385 5.62665 51.7768
40 2 1.63749 8.31769 51.7696
41 2 3.30455 10.8585 51.8008
42 2 7.84275 2.82104 51.7478
43 2 6.448 5.36502 51.7575
44 2 4.7156 8.17291 51.7679
45 2 6.18185 10.8942 51.808
46 2 10.9757 2.70288 51.7875
47 2 -3.03149 5.37167 51.8181
48 2 7.8396 8.21822 51.8246
49 1 1.45373 1.03927 53.5282
50 1 0.140225 3.60651 53.5401
51 1 -1.71078 6.38651 53.5718
52 1 -3.25125 9.20741 53.5876
53 1 4.86856 1.01598 53.5411
54 1 3.10118 3.79843 53.6114
55 1 1.47198 6.36824 53.5573
56 1 -0.0748285 9.08741 53.5923
57 1 7.8916 0.922294 53.5862
58 1 6.44042 3.60053 53.6099
59 1 4.70633 6.3547 53.6127
60 1 3.2165 9.20074 53.604
61 1 10.9508 0.775106 53.5911
62 1 9.47888 3.72555 53.5344
63 1 7.96342 6.40123 53.5421
64 1 6.27779 9.09132 53.5238
65 1 -0.0772012 1.80526 53.5707
66 1 -1.51565 4.55932 53.518
67 1 -3.05008 7.17203 53.5855
68 1 -4.84847 9.99799 53.5988
69 1 3.26486 1.89523 53.5476
70 1 1.68562 4.7133 53.5671
71 1 -0.0715523 7.42501 53.5466
72 1 -1.50794 10.1818 53.5232
73 1 6.44393 1.87899 53.5444
74 1 4.71816 4.6456 53.6143
75 1 3.20775 7.3315 53.5836
76 1 1.52443 10.142 53.5731
77 1 9.45457 1.68149 53.5833
78 1 7.89408 4.59355 53.612
79 1 6.32267 7.29144 53.5543
80 1 4.79438 9.96489 53.5569
81 2 -3.04373 10.9554 55.365
82 2 1.68012 2.83611 55.3679
83 2 -0.0164335 5.58151 55.3773
84 2 -1.47351 8.11201 55.3348
85 2 6.29674 0.108511 55.364
86 2 4.73754 2.86196 55.3719
87 2 3.17854 5.57664 55.3864
88 2 1.6386 8.35621 55.3554
89 2 3.14513 10.8337 55.309
90 2 7.99544 2.61689 55.3366
91 2 6.34468 5.55488 55.3872
92 2 4.66676 8.15066 55.3962
93 2 -0.0369769 0.129535 55.3427
94 2 11.0018 2.8204 55.3532
95 2 9.41264 5.57369 55.3883
96 2 7.82911 8.07482 55.3967
97 1 1.59689 0.840101 57.1781
98 1 -0.130609 3.6099 57.1631
99 1 -1.43369 6.44362 57.1109
100 1 -3.22087 9.20006 57.1521
101 1 4.78812 0.869803 57.0824
102 1 3.24943 3.54571 57.1014
103 1 1.6043 6.31182 57.1122
104 1 0.0274303 9.05066 57.1042
105 1 7.77605 0.876289 57.119
106 1 6.37168 3.60482 57.1173
107 1 4.71391 6.2751 57.1154
108 1 3.17924 8.98833 57.101
109 1 11.1663 0.939067 57.1214
110 1 9.43908 3.61424 57.0801
111 1 7.97182 6.53307 57.1269
112 1 6.36814 9.2529 57.0923
113 1 -0.145763 1.78937 57.1255
114 1 -1.45693 4.62696 57.117
115 1 -3.09338 7.39449 57.1252
116 1 -4.83908 10.0118 57.1135
117 1 3.15091 1.8841 57.127
118 1 1.51929 4.60254 57.1327
119 1 0.114102 7.42059 57.1552
120 1 -1.72537 9.89617 57.1577
121 1 6.43682 1.80226 57.1325
122 1 4.71965 4.63006 57.0987
123 1 3.08398 7.20862 57.1458
124 1 1.57359 10.146 57.1741
125 1 9.42404 1.9055 57.1331
126 1 7.79274 4.51859 57.0888
127 1 6.425 7.32363 57.1523
128 1 4.71319 10.1177 57.0906
129 2 3.02869 0.0641396 58.943
130 2 1.62191 2.86537 58.9584
131 2 0.0396195 5.36451 58.917
132 2 -1.53846 8.08956 58.9237
133 2 6.21347 0.0366681 58.9385
134 2 4.81667 2.82222 58.8823
135 2 3.07556 5.44099 58.8713
136 2 1.70503 8.27332 58.9517
137 2 9.5162 0.00051161 58.8777
138 2 7.82989 2.7395 58.8924
139 2 6.35117 5.38236 58.9593
140 2 4.67187 8.31446 58.9177
141 2 0.00452385 0.133119 58.8891
142 2 -1.43256 2.70189 58.9534
143 2 -3.08407 5.56948 58.868
144 2 7.83592 8.17137 58.9541
ITEM: TIMESTEP
10
ITEM: NUMBER OF ATOMS
144
ITEM: BOX BOUNDS xy xz yz pp pp ff
-6.3252579288457005e+00 1.2650515727996352e+01 -6.3252579288457005e+00
0.0000000000000000e+00 1.0955668034696915e+01 0.0000000000000000e+00
2.0000000000000000e+01 8.8911791966829043e+01 0.0000000000000000e+00
ITEM: ATOMS id type x y z
1 1 1.65067 0.823582 50.0064
2 1 0.0268406 3.56118 50
3 1 -1.52643 6.25817 50.0118
4 1 -3.20879 9.10231 50.0409
5 1 4.6053 0.856897 50.0496
6 1 3.1479 3.68583 50.0209
7 1 1.57905 6.48254 50.0304
8 1 0.0206859 9.09813 50.0282
9 1 7.98821 0.879641 49.9648
10 1 6.3594 3.53321 50.0383
11 1 4.86726 6.35002 50.0015
12 1 3.12483 8.99415 49.9708
13 1 11.1245 0.941641 50.0087
14 1 9.52968 3.51839 49.9803
15 1 7.9851 6.52147 49.9975
16 1 6.3185 9.18954 49.9853
17 1 -0.0433647 1.69584 50.0145
18 1 -1.58515 4.57481 50.0165
19 1 -3.06097 7.38461 50.039
20 1 -4.87745 9.94025 49.9809
21 1 3.22841 1.93516 50.044
22 1 1.48447 4.44552 50.0317
23 1 -0.0957066 7.36408 50.0453
24 1 -1.50741 10.1561 49.9528
25 1 6.37229 1.80224 49.9715
26 1 4.80124 4.57822 49.9561
27 1 3.01485 7.29161 50.0173
28 1 1.45113 9.90296 49.9544
29 1 9.60619 1.70303 49.9878
30 1 7.97664 4.70318 50.0049
31 1 6.30647 7.20404 50.0408
32 1 4.87573 10.0906 50.0436
33 2 3.22188 0.0859628 51.7745
34 2 1.45245 2.87729 51.8108
35 2 0.102652 5.45044 51.8051
36 2 -1.54219 8.25591 51.7693
37 2 6.18084 0.100777 51.7658
38 2 4.76216 2.66049 51.7832
39 2 3.30385 5.62665 51.7768
40 2 1.63749 8.31769 51.7696
41 2 3.30455 10.8585 51.8008
42 2 7.84275 2.82104 51.7478
43 2 6.448 5.36502 51.7575
44 2 4.7156 8.17291 51.7679
45 2 6.18185 10.8942 51.808
46 2 10.9757 2.70288 51.7875
47 2 -3.03149 5.37167 51.8181
48 2 7.8396 8.21822 51.8246
49 1 1.45371 1.0407 53.5277
50 1 0.141589 3.60499 53.5415
51 1 -1.7114 6.38599 53.5738
52 1 -3.25061 9.21057 53.5876
53 1 4.86576 1.01391 53.5405
54 1 3.10345 3.8014 53.6116
55 1 1.46973 6.36945 53.5592
56 1 -0.0767716 9.08731 53.5915
57 1 7.89625 0.920956 53.5876
58 1 6.4406 3.60292 53.6099
59 1 4.70903 6.35441 53.6104
60 1 3.21472 9.20012 53.6039
61 1 10.9555 0.775155 53.5889
62 1 9.48014 3.72326 53.5381
63 1 7.96224 6.39835 53.5401
64 1 6.27897 9.09002 53.5245
65 1 -0.0773611 1.80452 53.572
66 1 -1.51566 4.55978 53.5162
67 1 -3.04914 7.17288 53.5873
68 1 -4.85273 9.99861 53.6007
69 1 3.26132 1.89749 53.5454
70 1 1.68551 4.70947 53.5618
71 1 -0.071803 7.42799 53.5455
72 1 -1.50629 10.1838 53.5224
73 1 6.44214 1.87686 53.5474
74 1 4.7203 4.64426 53.6169
75 1 3.20535 7.33063 53.5892
76 1 1.52266 10.1425 53.5729
77 1 9.45653 1.68494 53.5854
78 1 7.8987 4.59203 53.6092
79 1 6.32469 7.28853 53.5506
80 1 4.79279 9.9682 53.5568
81 2 -3.04903 10.9651 55.3683
82 2 1.66607 2.83068 55.3787
83 2 -0.0129858 5.58186 55.3853
84 2 -1.4781 8.11736 55.3503
85 2 6.28879 0.0939747 55.3761
86 2 4.74732 2.87369 55.3759
87 2 3.1768 5.575 55.4114
88 2 1.64248 8.34759 55.3555
89 2 3.14184 10.8337 55.3159
90 2 7.98788 2.62462 55.3523
91 2 6.35348 5.54366 55.3904
92 2 4.65438 8.14523 55.4084
93 2 -0.0365883 0.131845 55.3522
94 2 10.9957 2.82719 55.3522
95 2 9.40655 5.57718 55.4055
96 2 7.82383 8.06272 55.4023
97 1 1.5963 0.839369 57.1768
98 1 -0.129359 3.60593 57.1694
99 1 -1.43272 6.44126 57.1138
100 1 -3.22504 9.19882 57.1515
101 1 4.78519 0.872337 57.0848
102 1 3.24687 3.54625 57.0996
103 1 1.60723 6.30886 57.1135
104 1 0.0277697 9.05172 57.1063
105 1 7.77454 0.877706 57.1163
106 1 6.36803 3.60242 57.1166
107 1 4.71215 6.2723 57.1166
108 1 3.18088 8.98992 57.1035
109 1 11.1645 0.942098 57.1197
110 1 9.4417 3.61533 57.0832
111 1 7.97641 6.53566 57.1276
112 1 6.36825 9.25031 57.0932
113 1 -0.144278 1.79441 57.1249
114 1 -1.45346 4.62971 57.1201
115 1 -3.09269 7.39833 57.1237
116 1 -4.83789 10.0112 57.1116
117 1 3.15056 1.88255 57.1284
118 1 1.51917 4.60261 57.1348
119 1 0.114858 7.41767 57.155
120 1 -1.7259 9.89805 57.1562
121 1 6.43562 1.80097 57.1343
122 1 4.71955 4.63181 57.0992
123 1 3.08928 7.20602 57.1449
124 1 1.57087 10.1458 57.174
125 1 9.42194 1.90455 57.1347
126 1 7.79383 4.52347 57.0888
127 1 6.42255 7.32462 57.1534
128 1 4.71611 10.1157 57.0923
129 2 3.02971 0.0637195 58.9337
130 2 1.60387 2.87443 58.9431
131 2 0.0269816 5.35606 58.9088
132 2 -1.54185 8.07592 58.9109
133 2 6.21804 0.0339547 58.9356
134 2 4.83426 2.82367 58.8623
135 2 3.081 5.43805 58.8722
136 2 1.71093 8.26812 58.9379
137 2 9.51079 -0.00508095 58.8737
138 2 7.83134 2.74161 58.8864
139 2 6.35104 5.37507 58.9573
140 2 4.66994 8.30708 58.9176
141 2 0.00466874 0.12788 58.8849
142 2 -1.43232 2.70376 58.9519
143 2 -3.0887 5.58005 58.8718
144 2 7.82105 8.174 58.9522
ITEM: TIMESTEP
20
ITEM: NUMBER OF ATOMS
144
ITEM: BOX BOUNDS xy xz yz pp pp ff
-6.3252579288457005e+00 1.2650515727996352e+01 -6.3252579288457005e+00
0.0000000000000000e+00 1.0955668034696915e+01 0.0000000000000000e+00
2.0000000000000000e+01 8.8911791966829043e+01 0.0000000000000000e+00
ITEM: ATOMS id type x y z
1 1 1.65067 0.823582 50.0064
2 1 0.0268406 3.56118 50
3 1 -1.52643 6.25817 50.0118
4 1 -3.20879 9.10231 50.0409
5 1 4.6053 0.856897 50.0496
6 1 3.1479 3.68583 50.0209
7 1 1.57905 6.48254 50.0304
8 1 0.0206859 9.09813 50.0282
9 1 7.98821 0.879641 49.9648
10 1 6.3594 3.53321 50.0383
11 1 4.86726 6.35002 50.0015
12 1 3.12483 8.99415 49.9708
13 1 11.1245 0.941641 50.0087
14 1 9.52968 3.51839 49.9803
15 1 7.9851 6.52147 49.9975
16 1 6.3185 9.18954 49.9853
17 1 -0.0433647 1.69584 50.0145
18 1 -1.58515 4.57481 50.0165
19 1 -3.06097 7.38461 50.039
20 1 -4.87745 9.94025 49.9809
21 1 3.22841 1.93516 50.044
22 1 1.48447 4.44552 50.0317
23 1 -0.0957066 7.36408 50.0453
24 1 -1.50741 10.1561 49.9528
25 1 6.37229 1.80224 49.9715
26 1 4.80124 4.57822 49.9561
27 1 3.01485 7.29161 50.0173
28 1 1.45113 9.90296 49.9544
29 1 9.60619 1.70303 49.9878
30 1 7.97664 4.70318 50.0049
31 1 6.30647 7.20404 50.0408
32 1 4.87573 10.0906 50.0436
33 2 3.22188 0.0859628 51.7745
34 2 1.45245 2.87729 51.8108
35 2 0.102652 5.45044 51.8051
36 2 -1.54219 8.25591 51.7693
37 2 6.18084 0.100777 51.7658
38 2 4.76216 2.66049 51.7832
39 2 3.30385 5.62665 51.7768
40 2 1.63749 8.31769 51.7696
41 2 3.30455 10.8585 51.8008
42 2 7.84275 2.82104 51.7478
43 2 6.448 5.36502 51.7575
44 2 4.7156 8.17291 51.7679
45 2 6.18185 10.8942 51.808
46 2 10.9757 2.70288 51.7875
47 2 -3.03149 5.37167 51.8181
48 2 7.8396 8.21822 51.8246
49 1 1.45572 1.04152 53.5271
50 1 0.143227 3.60256 53.543
51 1 -1.70938 6.38396 53.5762
52 1 -3.24957 9.21372 53.5882
53 1 4.86177 1.01233 53.5397
54 1 3.10652 3.80292 53.6124
55 1 1.4686 6.37258 53.5612
56 1 -0.0789411 9.08745 53.5916
57 1 7.90097 0.918783 53.5899
58 1 6.43837 3.60658 53.6105
59 1 4.71125 6.35447 53.6087
60 1 3.21315 9.19971 53.6046
61 1 10.9602 0.774454 53.5869
62 1 9.48134 3.71878 53.5417
63 1 7.95975 6.39593 53.5371
64 1 6.28076 9.08824 53.5243
65 1 -0.077352 1.80494 53.5736
66 1 -1.51461 4.55828 53.514
67 1 -3.04979 7.17884 53.5895
68 1 -4.85567 10.001 53.6036
69 1 3.25628 1.89805 53.5433
70 1 1.68407 4.7052 53.5563
71 1 -0.0716901 7.43052 53.5439
72 1 -1.50694 10.1853 53.5212
73 1 6.4402 1.87466 53.5498
74 1 4.72472 4.64118 53.62
75 1 3.2015 7.32883 53.5952
76 1 1.52073 10.1439 53.5724
77 1 9.45871 1.69166 53.5876
78 1 7.90406 4.58995 53.6074
79 1 6.32694 7.28547 53.5467
80 1 4.79131 9.97197 53.5566
81 2 -3.05664 10.9756 55.3825
82 2 1.65133 2.82319 55.4066
83 2 -0.00959642 5.58199 55.4113
84 2 -1.48491 8.12493 55.3877
85 2 6.28208 0.0792214 55.4101
86 2 4.7582 2.88443 55.394
87 2 3.17509 5.57512 55.4597
88 2 1.64708 8.33799 55.3691
89 2 3.13785 10.833 55.341
90 2 7.98039 2.63116 55.3815
91 2 6.36142 5.53202 55.4128
92 2 4.64188 8.1391 55.4446
93 2 -0.0367307 0.133047 55.3798
94 2 10.9896 2.83299 55.3624
95 2 9.40029 5.57864 55.4516
96 2 7.81903 8.05139 55.4251
97 1 1.59597 0.839061 57.1767
98 1 -0.126201 3.60043 57.1775
99 1 -1.43179 6.43889 57.1177
100 1 -3.23145 9.19633 57.1523
101 1 4.78185 0.87487 57.0884
102 1 3.24413 3.5498 57.0988
103 1 1.60999 6.30641 57.116
104 1 0.0278775 9.05576 57.1096
105 1 7.77478 0.878898 57.1146
106 1 6.36281 3.59925 57.1172
107 1 4.71025 6.27193 57.119
108 1 3.18251 8.99186 57.1072
109 1 11.1596 0.943246 57.1192
110 1 9.44477 3.61842 57.0882
111 1 7.98206 6.5376 57.1296
112 1 6.36568 9.24621 57.0953
113 1 -0.13979 1.80197 57.1252
114 1 -1.45148 4.63385 57.1248
115 1 -3.09164 7.40203 57.1231
116 1 -4.83424 10.0118 57.1106
117 1 3.14991 1.8786 57.1313
118 1 1.51921 4.60107 57.138
119 1 0.115431 7.4115 57.1564
120 1 -1.72411 9.90099 57.1563
121 1 6.43247 1.80139 57.1377
122 1 4.71921 4.6308 57.1009
123 1 3.09576 7.20317 57.1455
124 1 1.56804 10.1445 57.1757
125 1 9.42026 1.90194 57.1382
126 1 7.79598 4.52986 57.09
127 1 6.41879 7.32581 57.1559
128 1 4.71919 10.114 57.095
129 2 3.02903 0.0625665 58.9107
130 2 1.58351 2.88611 58.9171
131 2 0.0138447 5.3441 58.8877
132 2 -1.54583 8.05989 58.8819
133 2 6.2236 0.0329415 58.9203
134 2 4.85596 2.82636 58.8292
135 2 3.08513 5.43412 58.8603
136 2 1.71961 8.26242 58.9099
137 2 9.50549 -0.0127455 58.8586
138 2 7.82902 2.74371 58.866
139 2 6.35048 5.36475 58.9449
140 2 4.66539 8.30103 58.9084
141 2 0.00478362 0.122554 58.8651
142 2 -1.42898 2.70457 58.9377
143 2 -3.09175 5.59457 58.8669
144 2 7.80522 8.17765 58.9368
ITEM: TIMESTEP
30
ITEM: NUMBER OF ATOMS
144
ITEM: BOX BOUNDS xy xz yz pp pp ff
-6.3252579288457005e+00 1.2650515727996352e+01 -6.3252579288457005e+00
0.0000000000000000e+00 1.0955668034696915e+01 0.0000000000000000e+00
2.0000000000000000e+01 8.8911791966829043e+01 0.0000000000000000e+00
ITEM: ATOMS id type x y z
1 1 1.65067 0.823582 50.0064
2 1 0.0268406 3.56118 50
3 1 -1.52643 6.25817 50.0118
4 1 -3.20879 9.10231 50.0409
5 1 4.6053 0.856897 50.0496
6 1 3.1479 3.68583 50.0209
7 1 1.57905 6.48254 50.0304
8 1 0.0206859 9.09813 50.0282
9 1 7.98821 0.879641 49.9648
10 1 6.3594 3.53321 50.0383
11 1 4.86726 6.35002 50.0015
12 1 3.12483 8.99415 49.9708
13 1 11.1245 0.941641 50.0087
14 1 9.52968 3.51839 49.9803
15 1 7.9851 6.52147 49.9975
16 1 6.3185 9.18954 49.9853
17 1 -0.0433647 1.69584 50.0145
18 1 -1.58515 4.57481 50.0165
19 1 -3.06097 7.38461 50.039
20 1 -4.87745 9.94025 49.9809
21 1 3.22841 1.93516 50.044
22 1 1.48447 4.44552 50.0317
23 1 -0.0957066 7.36408 50.0453
24 1 -1.50741 10.1561 49.9528
25 1 6.37229 1.80224 49.9715
26 1 4.80124 4.57822 49.9561
27 1 3.01485 7.29161 50.0173
28 1 1.45113 9.90296 49.9544
29 1 9.60619 1.70303 49.9878
30 1 7.97664 4.70318 50.0049
31 1 6.30647 7.20404 50.0408
32 1 4.87573 10.0906 50.0436
33 2 3.22188 0.0859628 51.7745
34 2 1.45245 2.87729 51.8108
35 2 0.102652 5.45044 51.8051
36 2 -1.54219 8.25591 51.7693
37 2 6.18084 0.100777 51.7658
38 2 4.76216 2.66049 51.7832
39 2 3.30385 5.62665 51.7768
40 2 1.63749 8.31769 51.7696
41 2 3.30455 10.8585 51.8008
42 2 7.84275 2.82104 51.7478
43 2 6.448 5.36502 51.7575
44 2 4.7156 8.17291 51.7679
45 2 6.18185 10.8942 51.808
46 2 10.9757 2.70288 51.7875
47 2 -3.03149 5.37167 51.8181
48 2 7.8396 8.21822 51.8246
49 1 1.45895 1.04146 53.5267
50 1 0.144321 3.60023 53.5442
51 1 -1.70577 6.38133 53.5782
52 1 -3.24857 9.21603 53.5892
53 1 4.85782 1.01151 53.5392
54 1 3.10932 3.80265 53.6137
55 1 1.46877 6.37647 53.5628
56 1 -0.0806493 9.0877 53.5923
57 1 7.90418 0.916561 53.5921
58 1 6.43477 3.61006 53.6116
59 1 4.71227 6.35485 53.6082
60 1 3.21204 9.19936 53.6057
61 1 10.9635 0.773427 53.5856
62 1 9.48234 3.71406 53.5444
63 1 7.95696 6.39474 53.5342
64 1 6.28256 9.08655 53.5235
65 1 -0.0771969 1.80629 53.5748
66 1 -1.51297 4.55563 53.5123
67 1 -3.05132 7.18711 53.5914
68 1 -4.85641 10.0043 53.6066
69 1 3.25148 1.89701 53.542
70 1 1.68201 4.70214 53.5522
71 1 -0.0713206 7.4316 53.5424
72 1 -1.50942 10.1859 53.5199
73 1 6.43887 1.87319 53.551
74 1 4.72956 4.63761 53.6226
75 1 3.19741 7.32683 53.5997
76 1 1.51931 10.1455 53.572
77 1 9.46045 1.6991 53.5892
78 1 7.9085 4.58807 53.6071
79 1 6.32877 7.28324 53.544
80 1 4.79048 9.97484 53.5563
81 2 -3.06346 10.9832 55.4019
82 2 1.64085 2.81628 55.4411
83 2 -0.0073029 5.58204 55.4448
84 2 -1.49119 8.13172 55.4331
85 2 6.27804 0.0687122 55.4544
86 2 4.76623 2.89105 55.4201
87 2 3.17414 5.57693 55.5142
88 2 1.65107 8.33072 55.391
89 2 3.13443 10.832 55.3766
90 2 7.97561 2.63456 55.416
91 2 6.36621 5.52392 55.4469
92 2 4.63299 8.13412 55.4916
93 2 -0.0369723 0.13333 55.4166
94 2 10.9855 2.83636 55.38
95 2 9.39578 5.57823 55.5082
96 2 7.81588 8.04393 55.4571
97 1 1.596 0.839271 57.1775
98 1 -0.122261 3.59527 57.1848
99 1 -1.43127 6.43718 57.1214
100 1 -3.23786 9.19347 57.1539
101 1 4.77908 0.876694 57.0918
102 1 3.242 3.55485 57.099
103 1 1.61191 6.30516 57.1187
104 1 0.027792 9.06119 57.1129
105 1 7.77648 0.879542 57.1139
106 1 6.35772 3.5964 57.1186
107 1 4.70874 6.2739 57.1218
108 1 3.18366 8.99359 57.111
109 1 11.1533 0.942472 57.12
110 1 9.44736 3.6224 57.0934
111 1 7.98692 6.53843 57.1321
112 1 6.36153 9.24191 57.0978
113 1 -0.13399 1.8095 57.126
114 1 -1.45134 4.63802 57.1295
115 1 -3.09053 7.40455 57.1234
116 1 -4.8296 10.0132 57.1107
117 1 3.14917 1.87375 57.1347
118 1 1.51936 4.59845 57.1411
119 1 0.115687 7.40445 57.1586
120 1 -1.72087 9.90402 57.1576
121 1 6.42842 1.80318 57.1414
122 1 4.71887 4.62762 57.1031
123 1 3.10156 7.20092 57.1471
124 1 1.56588 10.1424 57.1785
125 1 9.41942 1.89857 57.1422
126 1 7.79838 4.53581 57.0918
127 1 6.41497 7.32679 57.1589
128 1 4.72155 10.1129 57.0979
129 2 3.0273 0.0609454 58.8821
130 2 1.56636 2.89691 58.889
131 2 0.00392669 5.33232 58.8628
132 2 -1.54928 8.04649 58.8478
133 2 6.22849 0.0336317 58.8982
134 2 4.87543 2.82914 58.7942
135 2 3.08719 5.43031 58.8417
136 2 1.7286 8.25833 58.8777
137 2 9.50159 -0.0204608 58.8378
138 2 7.82398 2.74515 58.8397
139 2 6.34975 5.35465 58.9273
140 2 4.65984 8.29801 58.8938
141 2 0.00495571 0.118155 58.8377
142 2 -1.42407 2.70428 58.9175
143 2 -3.09255 5.60872 58.8561
144 2 7.79286 8.18147 58.9142
ITEM: TIMESTEP
40
ITEM: NUMBER OF ATOMS
144
ITEM: BOX BOUNDS xy xz yz pp pp ff
-6.3252579288457005e+00 1.2650515727996352e+01 -6.3252579288457005e+00
0.0000000000000000e+00 1.0955668034696915e+01 0.0000000000000000e+00
2.0000000000000000e+01 8.8911791966829043e+01 0.0000000000000000e+00
ITEM: ATOMS id type x y z
1 1 1.65067 0.823582 50.0064
2 1 0.0268406 3.56118 50
3 1 -1.52643 6.25817 50.0118
4 1 -3.20879 9.10231 50.0409
5 1 4.6053 0.856897 50.0496
6 1 3.1479 3.68583 50.0209
7 1 1.57905 6.48254 50.0304
8 1 0.0206859 9.09813 50.0282
9 1 7.98821 0.879641 49.9648
10 1 6.3594 3.53321 50.0383
11 1 4.86726 6.35002 50.0015
12 1 3.12483 8.99415 49.9708
13 1 11.1245 0.941641 50.0087
14 1 9.52968 3.51839 49.9803
15 1 7.9851 6.52147 49.9975
16 1 6.3185 9.18954 49.9853
17 1 -0.0433647 1.69584 50.0145
18 1 -1.58515 4.57481 50.0165
19 1 -3.06097 7.38461 50.039
20 1 -4.87745 9.94025 49.9809
21 1 3.22841 1.93516 50.044
22 1 1.48447 4.44552 50.0317
23 1 -0.0957066 7.36408 50.0453
24 1 -1.50741 10.1561 49.9528
25 1 6.37229 1.80224 49.9715
26 1 4.80124 4.57822 49.9561
27 1 3.01485 7.29161 50.0173
28 1 1.45113 9.90296 49.9544
29 1 9.60619 1.70303 49.9878
30 1 7.97664 4.70318 50.0049
31 1 6.30647 7.20404 50.0408
32 1 4.87573 10.0906 50.0436
33 2 3.22188 0.0859628 51.7745
34 2 1.45245 2.87729 51.8108
35 2 0.102652 5.45044 51.8051
36 2 -1.54219 8.25591 51.7693
37 2 6.18084 0.100777 51.7658
38 2 4.76216 2.66049 51.7832
39 2 3.30385 5.62665 51.7768
40 2 1.63749 8.31769 51.7696
41 2 3.30455 10.8585 51.8008
42 2 7.84275 2.82104 51.7478
43 2 6.448 5.36502 51.7575
44 2 4.7156 8.17291 51.7679
45 2 6.18185 10.8942 51.808
46 2 10.9757 2.70288 51.7875
47 2 -3.03149 5.37167 51.8181
48 2 7.8396 8.21822 51.8246
49 1 1.4626 1.04071 53.5265
50 1 0.1446 3.59841 53.5453
51 1 -1.70159 6.37865 53.5799
52 1 -3.24774 9.21756 53.5902
53 1 4.8543 1.01106 53.539
54 1 3.11163 3.80125 53.6151
55 1 1.46965 6.38049 53.5641
56 1 -0.0818431 9.08798 53.5934
57 1 7.90594 0.914551 53.594
58 1 6.43072 3.61293 53.6128
59 1 4.7124 6.3554 53.6084
60 1 3.21102 9.19884 53.6069
61 1 10.9653 0.772462 53.5851
62 1 9.48339 3.71004 53.5461
63 1 7.95442 6.39471 53.5319
64 1 6.28421 9.085 53.5224
65 1 -0.0769864 1.8081 53.5758
66 1 -1.51117 4.55275 53.5112
67 1 -3.05309 7.19545 53.593
68 1 -4.85548 10.0076 53.6093
69 1 3.24741 1.89514 53.5414
70 1 1.67994 4.70049 53.5496
71 1 -0.0709034 7.43129 53.5413
72 1 -1.51278 10.1859 53.519
73 1 6.4382 1.87252 53.5513
74 1 4.73385 4.63421 53.6247
75 1 3.19347 7.32505 53.6028
76 1 1.51846 10.1468 53.5718
77 1 9.46176 1.7061 53.5903
78 1 7.91187 4.58668 53.6078
79 1 6.33022 7.28178 53.5425
80 1 4.79025 9.97664 53.5561
81 2 -3.06846 10.9875 55.4227
82 2 1.63471 2.81069 55.4756
83 2 -0.00605139 5.58227 55.4781
84 2 -1.49584 8.13674 55.4778
85 2 6.27582 0.0621252 55.5012
86 2 4.771 2.89437 55.4493
87 2 3.17402 5.57984 55.5657
88 2 1.65439 8.32608 55.4158
89 2 3.13174 10.831 55.4167
90 2 7.97355 2.63537 55.452
91 2 6.36846 5.51943 55.4853
92 2 4.62738 8.13038 55.5399
93 2 -0.0369756 0.133481 55.456
94 2 10.983 2.83801 55.4008
95 2 9.39296 5.5771 55.5621
96 2 7.8139 8.03951 55.4917
97 1 1.59627 0.839946 57.1787
98 1 -0.118181 3.59106 57.1905
99 1 -1.43122 6.43608 57.1242
100 1 -3.24341 9.1907 57.1559
101 1 4.77699 0.877808 57.0948
102 1 3.24049 3.56024 57.0997
103 1 1.61308 6.30491 57.1211
104 1 0.0276115 9.06693 57.1157
105 1 7.779 0.879751 57.114
106 1 6.35333 3.59422 57.1201
107 1 4.70765 6.27729 57.1244
108 1 3.18439 8.99508 57.1143
109 1 11.1468 0.940494 57.1213
110 1 9.44928 3.62657 57.0981
111 1 7.99058 6.53834 57.1345
112 1 6.35675 9.23791 57.1002
113 1 -0.127942 1.81599 57.1269
114 1 -1.45251 4.64172 57.1333
115 1 -3.08947 7.40592 57.124
116 1 -4.82497 10.015 57.1114
117 1 3.14847 1.86886 57.1382
118 1 1.51958 4.59526 57.1437
119 1 0.115696 7.39779 57.161
120 1 -1.717 9.90679 57.1594
121 1 6.42413 1.80566 57.1448
122 1 4.71864 4.62333 57.1052
123 1 3.10642 7.19935 57.149
124 1 1.56444 10.14 57.1816
125 1 9.41926 1.89504 57.1462
126 1 7.80068 4.54086 57.0938
127 1 6.41149 7.32752 57.1618
128 1 4.72312 10.1123 57.1005
129 2 3.02542 0.0591486 58.8527
130 2 1.55277 2.90612 58.8626
131 2 -0.00253245 5.32189 58.84
132 2 -1.55201 8.03677 58.8153
133 2 6.23225 0.0353412 58.874
134 2 4.89137 2.83129 58.7624
135 2 3.08762 5.42668 58.8218
136 2 1.73702 8.25627 58.847
137 2 9.49913 -0.0277626 58.8157
138 2 7.8176 2.74613 58.8134
139 2 6.34913 5.34559 58.9088
140 2 4.65424 8.2977 58.8774
141 2 0.00517887 0.114472 58.8091
142 2 -1.41889 2.70331 58.8969
143 2 -3.09162 5.62127 58.8431
144 2 7.78429 8.18531 58.8899
ITEM: TIMESTEP
50
ITEM: NUMBER OF ATOMS
144
ITEM: BOX BOUNDS xy xz yz pp pp ff
-6.3252579288457005e+00 1.2650515727996352e+01 -6.3252579288457005e+00
0.0000000000000000e+00 1.0955668034696915e+01 0.0000000000000000e+00
2.0000000000000000e+01 8.8911791966829043e+01 0.0000000000000000e+00
ITEM: ATOMS id type x y z
1 1 1.65067 0.823582 50.0064
2 1 0.0268406 3.56118 50
3 1 -1.52643 6.25817 50.0118
4 1 -3.20879 9.10231 50.0409
5 1 4.6053 0.856897 50.0496
6 1 3.1479 3.68583 50.0209
7 1 1.57905 6.48254 50.0304
8 1 0.0206859 9.09813 50.0282
9 1 7.98821 0.879641 49.9648
10 1 6.3594 3.53321 50.0383
11 1 4.86726 6.35002 50.0015
12 1 3.12483 8.99415 49.9708
13 1 11.1245 0.941641 50.0087
14 1 9.52968 3.51839 49.9803
15 1 7.9851 6.52147 49.9975
16 1 6.3185 9.18954 49.9853
17 1 -0.0433647 1.69584 50.0145
18 1 -1.58515 4.57481 50.0165
19 1 -3.06097 7.38461 50.039
20 1 -4.87745 9.94025 49.9809
21 1 3.22841 1.93516 50.044
22 1 1.48447 4.44552 50.0317
23 1 -0.0957066 7.36408 50.0453
24 1 -1.50741 10.1561 49.9528
25 1 6.37229 1.80224 49.9715
26 1 4.80124 4.57822 49.9561
27 1 3.01485 7.29161 50.0173
28 1 1.45113 9.90296 49.9544
29 1 9.60619 1.70303 49.9878
30 1 7.97664 4.70318 50.0049
31 1 6.30647 7.20404 50.0408
32 1 4.87573 10.0906 50.0436
33 2 3.22188 0.0859628 51.7745
34 2 1.45245 2.87729 51.8108
35 2 0.102652 5.45044 51.8051
36 2 -1.54219 8.25591 51.7693
37 2 6.18084 0.100777 51.7658
38 2 4.76216 2.66049 51.7832
39 2 3.30385 5.62665 51.7768
40 2 1.63749 8.31769 51.7696
41 2 3.30455 10.8585 51.8008
42 2 7.84275 2.82104 51.7478
43 2 6.448 5.36502 51.7575
44 2 4.7156 8.17291 51.7679
45 2 6.18185 10.8942 51.808
46 2 10.9757 2.70288 51.7875
47 2 -3.03149 5.37167 51.8181
48 2 7.8396 8.21822 51.8246
49 1 1.46632 1.03952 53.5265
50 1 0.144141 3.59707 53.5464
51 1 -1.69726 6.37607 53.5813
52 1 -3.247 9.21854 53.5914
53 1 4.8511 1.01061 53.539
54 1 3.11361 3.79928 53.6166
55 1 1.47072 6.38451 53.5653
56 1 -0.0826667 9.08826 53.5948
57 1 7.90681 0.912717 53.5957
58 1 6.42656 3.61533 53.6142
59 1 4.71211 6.35604 53.6092
60 1 3.20971 9.19807 53.6083
61 1 10.9663 0.77176 53.5849
62 1 9.48466 3.7068 53.5473
63 1 7.9523 6.39559 53.5303
64 1 6.28581 9.08342 53.5213
65 1 -0.0768142 1.81007 53.5766
66 1 -1.50939 4.55011 53.5106
67 1 -3.05496 7.2031 53.5944
68 1 -4.85364 10.011 53.6117
69 1 3.24394 1.89304 53.5413
70 1 1.67809 4.69988 53.5479
71 1 -0.0705816 7.42999 53.5406
72 1 -1.51644 10.1856 53.5184
73 1 6.43792 1.87244 53.5511
74 1 4.73747 4.63111 53.6265
75 1 3.18972 7.32363 53.605
76 1 1.51806 10.1474 53.5717
77 1 9.46286 1.71256 53.5911
78 1 7.91453 4.58577 53.609
79 1 6.33152 7.28067 53.5419
80 1 4.79041 9.97762 53.5559
81 2 -3.07182 10.9897 55.4435
82 2 1.63145 2.80622 55.5084
83 2 -0.00552738 5.58286 55.5086
84 2 -1.4989 8.14012 55.5186
85 2 6.27439 0.057897 55.5472
86 2 4.7734 2.89605 55.4796
87 2 3.17455 5.58334 55.6117
88 2 1.65736 8.32323 55.4406
89 2 3.12953 10.8301 55.4591
90 2 7.97339 2.63464 55.4892
91 2 6.36928 5.51734 55.5241
92 2 4.62369 8.12739 55.5855
93 2 -0.0366755 0.134021 55.4958
94 2 10.9815 2.83886 55.4231
95 2 9.3912 5.57602 55.6088
96 2 7.81245 8.03656 55.5252
97 1 1.59667 0.841061 57.18
98 1 -0.114143 3.5877 57.1949
99 1 -1.43153 6.43534 57.1262
100 1 -3.24807 9.18815 57.158
101 1 4.77543 0.878413 57.0973
102 1 3.23941 3.56551 57.1007
103 1 1.61374 6.30527 57.123
104 1 0.027385 9.07262 57.1181
105 1 7.78196 0.879723 57.1143
106 1 6.34961 3.59268 57.1215
107 1 4.70695 6.28142 57.1266
108 1 3.18487 8.99651 57.117
109 1 11.1404 0.937901 57.1227
110 1 9.45066 3.63069 57.1021
111 1 7.99327 6.53758 57.1367
112 1 6.35175 9.23423 57.1023
113 1 -0.121979 1.82139 57.1277
114 1 -1.45455 4.64491 57.1364
115 1 -3.08848 7.4064 57.1247
116 1 -4.82071 10.0168 57.1122
117 1 3.14781 1.86422 57.1415
118 1 1.51989 4.59176 57.1456
119 1 0.115559 7.39181 57.1634
120 1 -1.71287 9.90932 57.1616
121 1 6.41977 1.80841 57.1478
122 1 4.71854 4.61859 57.1072
123 1 3.1106 7.19828 57.1508
124 1 1.56354 10.1372 57.1848
125 1 9.41951 1.8916 57.1498
126 1 7.80281 4.54521 57.0955
127 1 6.40829 7.32801 57.1643
128 1 4.72408 10.1119 57.1027
129 2 3.02398 0.0573068 58.8248
130 2 1.54136 2.91419 58.8386
131 2 -0.00630949 5.31265 58.8213
132 2 -1.55415 8.03009 58.7869
133 2 6.23489 0.037619 58.85
134 2 4.90454 2.83262 58.7348
135 2 3.08689 5.42285 58.8032
136 2 1.74469 8.25584 58.8199
137 2 9.49789 -0.0347013 58.7942
138 2 7.81062 2.74712 58.7898
139 2 6.34876 5.33715 58.8915
140 2 4.64886 8.29925 58.8615
141 2 0.00542612 0.111219 58.7822
142 2 -1.41397 2.70203 58.8782
143 2 -3.08942 5.63254 58.8298
144 2 7.7787 8.1893 58.8671
ITEM: TIMESTEP
60
ITEM: NUMBER OF ATOMS
144
ITEM: BOX BOUNDS xy xz yz pp pp ff
-6.3252579288457005e+00 1.2650515727996352e+01 -6.3252579288457005e+00
0.0000000000000000e+00 1.0955668034696915e+01 0.0000000000000000e+00
2.0000000000000000e+01 8.8911791966829043e+01 0.0000000000000000e+00
ITEM: ATOMS id type x y z
1 1 1.65067 0.823582 50.0064
2 1 0.0268406 3.56118 50
3 1 -1.52643 6.25817 50.0118
4 1 -3.20879 9.10231 50.0409
5 1 4.6053 0.856897 50.0496
6 1 3.1479 3.68583 50.0209
7 1 1.57905 6.48254 50.0304
8 1 0.0206859 9.09813 50.0282
9 1 7.98821 0.879641 49.9648
10 1 6.3594 3.53321 50.0383
11 1 4.86726 6.35002 50.0015
12 1 3.12483 8.99415 49.9708
13 1 11.1245 0.941641 50.0087
14 1 9.52968 3.51839 49.9803
15 1 7.9851 6.52147 49.9975
16 1 6.3185 9.18954 49.9853
17 1 -0.0433647 1.69584 50.0145
18 1 -1.58515 4.57481 50.0165
19 1 -3.06097 7.38461 50.039
20 1 -4.87745 9.94025 49.9809
21 1 3.22841 1.93516 50.044
22 1 1.48447 4.44552 50.0317
23 1 -0.0957066 7.36408 50.0453
24 1 -1.50741 10.1561 49.9528
25 1 6.37229 1.80224 49.9715
26 1 4.80124 4.57822 49.9561
27 1 3.01485 7.29161 50.0173
28 1 1.45113 9.90296 49.9544
29 1 9.60619 1.70303 49.9878
30 1 7.97664 4.70318 50.0049
31 1 6.30647 7.20404 50.0408
32 1 4.87573 10.0906 50.0436
33 2 3.22188 0.0859628 51.7745
34 2 1.45245 2.87729 51.8108
35 2 0.102652 5.45044 51.8051
36 2 -1.54219 8.25591 51.7693
37 2 6.18084 0.100777 51.7658
38 2 4.76216 2.66049 51.7832
39 2 3.30385 5.62665 51.7768
40 2 1.63749 8.31769 51.7696
41 2 3.30455 10.8585 51.8008
42 2 7.84275 2.82104 51.7478
43 2 6.448 5.36502 51.7575
44 2 4.7156 8.17291 51.7679
45 2 6.18185 10.8942 51.808
46 2 10.9757 2.70288 51.7875
47 2 -3.03149 5.37167 51.8181
48 2 7.8396 8.21822 51.8246
49 1 1.46995 1.0381 53.5266
50 1 0.143128 3.59606 53.5475
51 1 -1.69293 6.37356 53.5828
52 1 -3.24626 9.2191 53.5925
53 1 4.84813 1.01003 53.5394
54 1 3.11548 3.79702 53.6183
55 1 1.47167 6.38852 53.5666
56 1 -0.0832283 9.08859 53.5964
57 1 7.90726 0.911015 53.5972
58 1 6.42243 3.61751 53.6156
59 1 4.71176 6.35675 53.6103
60 1 3.20792 9.19711 53.6098
61 1 10.9668 0.771445 53.5851
62 1 9.4862 3.70409 53.5484
63 1 7.95059 6.39716 53.5292
64 1 6.28746 9.08171 53.5202
65 1 -0.0767789 1.81205 53.5775
66 1 -1.50766 4.54784 53.5104
67 1 -3.057 7.20998 53.5958
68 1 -4.8514 10.0141 53.6141
69 1 3.24086 1.89106 53.5415
70 1 1.67655 4.69991 53.5467
71 1 -0.0703931 7.4281 53.5402
72 1 -1.52007 10.185 53.5182
73 1 6.43776 1.87279 53.5506
74 1 4.74056 4.62828 53.6282
75 1 3.18619 7.3226 53.607
76 1 1.51798 10.1472 53.5718
77 1 9.46395 1.71867 53.5917
78 1 7.91669 4.58531 53.6106