(written by ASE)

144 atoms
3 atom types

0.0      12.650515727996352  xlo xhi
0.0      10.955668034696915  ylo yhi
20.0      88.91179196682904  zlo zhi
    -6.3252579288457005                       0                       0  xy xz yz

Atoms # atomic

1	1	1.581314495	0.912972348	50
2	1	1.30E-08	3.651889356	50
3	1	-1.581314469	6.390806365	50
4	1	-3.162628951	9.129723374	50
5	1	4.743943427	0.912972348	50
6	1	3.162628945	3.651889356	50
7	1	1.581314463	6.390806365	50
8	1	-1.95E-08	9.129723374	50
9	1	7.906572359	0.912972348	50
10	1	6.325257877	3.651889356	50
11	1	4.743943395	6.390806365	50
12	1	3.162628913	9.129723374	50
13	1	11.06920129	0.912972348	50
14	1	9.487886809	3.651889356	50
15	1	7.906572327	6.390806365	50
16	1	6.325257845	9.129723374	50
17	1	-1.07E-08	1.825944676	50.00000002
18	1	-1.581314493	4.564861685	50.00000002
19	1	-3.162628975	7.303778694	50.00000002
20	1	-4.743943457	10.0426957	50.00000002
21	1	3.162628921	1.825944676	50.00000002
22	1	1.581314439	4.564861685	50.00000002
23	1	-4.31E-08	7.303778694	50.00000002
24	1	-1.581314525	10.0426957	50.00000002
25	1	6.325257853	1.825944676	50.00000002
26	1	4.743943371	4.564861685	50.00000002
27	1	3.162628889	7.303778694	50.00000002
28	1	1.581314407	10.0426957	50.00000002
29	1	9.487886785	1.825944676	50.00000002
30	1	7.906572303	4.564861685	50.00000002
31	1	6.325257821	7.303778694	50.00000002
32	1	4.743943339	10.0426957	50.00000002
33	2	3.16262889	1.63E-08	51.78235806
34	2	1.581314408	2.738917025	51.78235806
35	2	-7.43E-08	5.477834034	51.78235806
36	2	-1.581314556	8.216751042	51.78235806
37	2	6.325257822	1.63E-08	51.78235806
38	2	4.74394334	2.738917025	51.78235806
39	2	3.162628858	5.477834034	51.78235806
40	2	1.581314376	8.216751042	51.78235806
41	2	9.487886754	1.63E-08	51.78235806
42	2	7.906572272	2.738917025	51.78235806
43	2	6.32525779	5.477834034	51.78235806
44	2	4.743943308	8.216751042	51.78235806
45	2	-4.19E-08	1.63E-08	51.78235806
46	2	-1.581314524	2.738917025	51.78235806
47	2	-3.162629006	5.477834034	51.78235806
48	2	-4.743943488	8.216751042	51.78235806
49	1	1.581314492	0.912972363	53.56471695
50	1	9.38E-09	3.651889372	53.56471695
51	1	-1.581314473	6.390806381	53.56471695
52	1	-3.162628955	9.129723389	53.56471695
53	1	4.743943424	0.912972363	53.56471695
54	1	3.162628941	3.651889372	53.56471695
55	1	1.581314459	6.390806381	53.56471695
56	1	-2.30E-08	9.129723389	53.56471695
57	1	7.906572356	0.912972363	53.56471695
58	1	6.325257873	3.651889372	53.56471695
59	1	4.743943391	6.390806381	53.56471695
60	1	3.162628909	9.129723389	53.56471695
61	1	11.06920129	0.912972363	53.56471695
62	1	9.487886805	3.651889372	53.56471695
63	1	7.906572323	6.390806381	53.56471695
64	1	6.325257841	9.129723389	53.56471695
65	1	-1.43E-08	1.825944692	53.56471698
66	1	-1.581314496	4.564861701	53.56471698
67	1	-3.162628979	7.303778709	53.56471698
68	1	-4.743943461	10.04269572	53.56471698
69	1	3.162628918	1.825944692	53.56471698
70	1	1.581314436	4.564861701	53.56471698
71	1	-4.67E-08	7.303778709	53.56471698
72	1	-1.581314529	10.04269572	53.56471698
73	1	6.32525785	1.825944692	53.56471698
74	1	4.743943367	4.564861701	53.56471698
75	1	3.162628885	7.303778709	53.56471698
76	1	1.581314403	10.04269572	53.56471698
77	1	9.487886782	1.825944692	53.56471698
78	1	7.906572299	4.564861701	53.56471698
79	1	6.325257817	7.303778709	53.56471698
80	1	4.743943335	10.04269572	53.56471698
81	2	3.162628887	3.20E-08	55.34707501
82	2	1.581314404	2.738917041	55.34707501
83	2	-7.79E-08	5.477834049	55.34707501
84	2	-1.58131456	8.216751058	55.34707501
85	2	6.325257819	3.20E-08	55.34707501
86	2	4.743943336	2.738917041	55.34707501
87	2	3.162628854	5.477834049	55.34707501
88	2	1.581314372	8.216751058	55.34707501
89	2	9.487886751	3.20E-08	55.34707501
90	2	7.906572268	2.738917041	55.34707501
91	2	6.325257786	5.477834049	55.34707501
92	2	4.743943304	8.216751058	55.34707501
93	2	-4.54E-08	3.20E-08	55.34707501
94	2	-1.581314528	2.738917041	55.34707501
95	2	-3.16262901	5.477834049	55.34707501
96	2	-4.743943492	8.216751058	55.34707501
97	1	1.581314488	0.912972379	57.12943391
98	1	5.79E-09	3.651889388	57.12943391
99	1	-1.581314476	6.390806396	57.12943391
100	1	-3.162628959	9.129723405	57.12943391
101	1	4.74394342	0.912972379	57.12943391
102	1	3.162628938	3.651889388	57.12943391
103	1	1.581314456	6.390806396	57.12943391
104	1	-2.66E-08	9.129723405	57.12943391
105	1	7.906572352	0.912972379	57.12943391
106	1	6.32525787	3.651889388	57.12943391
107	1	4.743943388	6.390806396	57.12943391
108	1	3.162628905	9.129723405	57.12943391
109	1	11.06920128	0.912972379	57.12943391
110	1	9.487886802	3.651889388	57.12943391
111	1	7.90657232	6.390806396	57.12943391
112	1	6.325257837	9.129723405	57.12943391
113	1	-1.79E-08	1.825944708	57.12943393
114	1	-1.5813145	4.564861716	57.12943393
115	1	-3.162628982	7.303778725	57.12943393
116	1	-4.743943465	10.04269573	57.12943393
117	1	3.162628914	1.825944708	57.12943393
118	1	1.581314432	4.564861716	57.12943393
119	1	-5.03E-08	7.303778725	57.12943393
120	1	-1.581314533	10.04269573	57.12943393
121	1	6.325257846	1.825944708	57.12943393
122	1	4.743943364	4.564861716	57.12943393
123	1	3.162628882	7.303778725	57.12943393
124	1	1.581314399	10.04269573	57.12943393
125	1	9.487886778	1.825944708	57.12943393
126	1	7.906572296	4.564861716	57.12943393
127	1	6.325257814	7.303778725	57.12943393
128	1	4.743943331	10.04269573	57.12943393
129	2	3.162628883	4.78E-08	58.91179197
130	2	1.581314401	2.738917056	58.91179197
131	2	-8.14E-08	5.477834065	58.91179197
132	2	-1.581314564	8.216751074	58.91179197
133	2	6.325257815	4.78E-08	58.91179197
134	2	4.743943333	2.738917056	58.91179197
135	2	3.162628851	5.477834065	58.91179197
136	2	1.581314368	8.216751074	58.91179197
137	2	9.487886747	4.78E-08	58.91179197
138	2	7.906572265	2.738917056	58.91179197
139	2	6.325257783	5.477834065	58.91179197
140	2	4.7439433	8.216751074	58.91179197
141	2	-4.90E-08	4.78E-08	58.91179197
142	2	-1.581314531	2.738917056	58.91179197
143	2	-3.162629013	5.477834065	58.91179197
144	2	-4.743943496	8.216751074	58.91179197