
     Program PWSCF v.7.4 starts on 17Nov2025 at 14:29:10 

     This program is part of the open-source Quantum ESPRESSO suite
     for quantum simulation of materials; please cite
         "P. Giannozzi et al., J. Phys.:Condens. Matter 21 395502 (2009);
         "P. Giannozzi et al., J. Phys.:Condens. Matter 29 465901 (2017);
         "P. Giannozzi et al., J. Chem. Phys. 152 154105 (2020);
          URL http://www.quantum-espresso.org", 
     in publications or presentations arising from this work. More details at
     http://www.quantum-espresso.org/quote

     Parallel version (MPI & OpenMP), running on      64 processor cores
     Number of MPI processes:                64
     Threads/MPI process:                     1

     MPI processes distributed on     1 nodes
     65336 MiB available memory on the printing compute node when the environment starts

     Reading input from zrb2-o-T-relax.in
Warning: card &CELL ignored
Warning: card / ignored
Warning: card &FCP ignored
Warning: card / ignored
Warning: card &RISM ignored
Warning: card / ignored

     Current dimensions of program PWSCF are:
     Max number of different atomic species (ntypx) = 10
     Max number of k-points (npk) =  40000
     Max angular momentum in pseudopotentials (lmaxx) =  4
     file Zr.pbe-spn-kjpaw_psl.1.0.0.UPF: wavefunction(s)  4S 4P renormalized
     file O.pbe-n-kjpaw_psl.0.1.UPF: wavefunction(s)  2P renormalized

     K-points division:     npool     =       2
     R & G space division:  proc/nbgrp/npool/nimage =      32
     Subspace diagonalization in iterative solution of the eigenvalue problem:
     one sub-group per band group will be used
     ELPA distributed-memory algorithm (size of sub-group:  5*  5 procs)


     Parallelization info
     --------------------
     sticks:   dense  smooth     PW     G-vecs:    dense   smooth      PW
     Min         498     248     64               115266    40745    5420
     Max         499     250     65               115281    40755    5437
     Sum       15937    7963   2077              3688607  1303991  173729

     Using Slab Decomposition



     bravais-lattice index     =            0
     lattice parameter (alat)  =      24.0410  a.u.
     unit-cell volume          =   27301.5549 (a.u.)^3
     number of atoms/cell      =          145
     number of atomic types    =            3
     number of electrons       =       870.00
     number of Kohn-Sham states=          522
     kinetic-energy cutoff     =      50.0000  Ry
     charge density cutoff     =     400.0000  Ry
     scf convergence threshold =      1.0E-07
     mixing beta               =       0.7000
     number of iterations used =            8  local-TF  mixing
     energy convergence thresh.=      1.0E-04
     force convergence thresh. =      1.0E-03
     Exchange-correlation= SLA  PW   PBX  PBC
                           (   1   4   3   4   0   0   0)
     nstep                     =           50


     celldm(1)=  24.041023  celldm(2)=   0.000000  celldm(3)=   0.000000
     celldm(4)=   0.000000  celldm(5)=   0.000000  celldm(6)=   0.000000

     crystal axes: (cart. coord. in units of alat)
               a(1) = (   1.000000   0.000000   0.000000 )  
               a(2) = (  -0.500000   0.866025   0.000000 )  
               a(3) = (   0.000000   0.000000   2.268810 )  

     reciprocal axes: (cart. coord. in units 2 pi/alat)
               b(1) = (  1.000000  0.577351 -0.000000 )  
               b(2) = (  0.000000  1.154701  0.000000 )  
               b(3) = (  0.000000 -0.000000  0.440760 )  


     PseudoPot. # 1 for Zr read from file:
     /home/cganley2/qe-data/pseudopotentials/SSSP_1.3.0_PBE_precision/Zr.pbe-spn-kjpaw_psl.1.0.0.UPF
     MD5 check sum: 83bf7718257ce689f169bc8534fef73a
     Pseudo is Projector augmented-wave + core cor, Zval = 12.0
     Generated using &quot;atomic&quot; code by A. Dal Corso  v.6.2.2
     Shape of augmentation charge: PSQ
     Using radial grid of 1225 points,  6 beta functions with: 
                l(1) =   0
                l(2) =   0
                l(3) =   1
                l(4) =   1
                l(5) =   2
                l(6) =   2
     Q(r) pseudized with 0 coefficients 


     PseudoPot. # 2 for B  read from file:
     /home/cganley2/qe-data/pseudopotentials/SSSP_1.3.0_PBE_precision/B.pbe-n-kjpaw_psl.1.0.0.UPF
     MD5 check sum: 757e44352cacacece234d5873ff275d1
     Pseudo is Projector augmented-wave + core cor, Zval =  3.0
     Generated using &quot;atomic&quot; code by A. Dal Corso  v.6.3
     Shape of augmentation charge: PSQ
     Using radial grid of 1059 points,  4 beta functions with: 
                l(1) =   0
                l(2) =   0
                l(3) =   1
                l(4) =   1
     Q(r) pseudized with 0 coefficients 


     PseudoPot. # 3 for O  read from file:
     /home/cganley2/qe-data/pseudopotentials/SSSP_1.3.0_PBE_precision/O.pbe-n-kjpaw_psl.0.1.UPF
     MD5 check sum: 0234752ac141de4415c5fc33072bef88
     Pseudo is Projector augmented-wave + core cor, Zval =  6.0
     Generated using "atomic" code by A. Dal Corso  v.5.0.99 svn rev. 10869
     Shape of augmentation charge: BESSEL
     Using radial grid of 1095 points,  4 beta functions with: 
                l(1) =   0
                l(2) =   0
                l(3) =   1
                l(4) =   1
     Q(r) pseudized with 0 coefficients 


     atomic species   valence    mass     pseudopotential
     Zr               12.00    91.22400     Zr( 1.00)
     B                 3.00    10.81000     B ( 1.00)
     O                 6.00    15.99900     O ( 1.00)

     No symmetry found



   Cartesian axes

     site n.     atom                  positions (alat units)
         1        Zr     tau(   1) = (   0.0000000   0.0000000   0.7935304  )
         2        B      tau(   2) = (   0.1250001   0.0721688   0.9260528  )
         3        B      tau(   3) = (  -0.0000000   0.1443377   0.9260528  )
         4        Zr     tau(   4) = (   0.0000000   0.0000000   1.0651436  )
         5        B      tau(   5) = (   0.1250001   0.0721689   1.2047800  )
         6        B      tau(   6) = (  -0.0000000   0.1443377   1.2047800  )
         7        Zr     tau(   7) = (   0.0000000   0.0000000   1.3467056  )
         8        B      tau(   8) = (   0.1250000   0.0721688   1.4758076  )
         9        B      tau(   9) = (  -0.0000000   0.1443375   1.4758076  )
        10        Zr     tau(  10) = (  -0.1249999   0.2165062   0.7935305  )
        11        B      tau(  11) = (   0.0000000   0.2886753   0.9260529  )
        12        B      tau(  12) = (  -0.1250000   0.3608440   0.9260530  )
        13        Zr     tau(  13) = (  -0.1250001   0.2165065   1.0651438  )
        14        B      tau(  14) = (   0.0000000   0.2886753   1.2047800  )
        15        B      tau(  15) = (  -0.1250001   0.3608440   1.2047801  )
        16        Zr     tau(  16) = (  -0.1250000   0.2165063   1.3467057  )
        17        B      tau(  17) = (   0.0000000   0.2886750   1.4758076  )
        18        B      tau(  18) = (  -0.1250001   0.3608437   1.4758077  )
        19        Zr     tau(  19) = (  -0.2500000   0.4330127   0.7935306  )
        20        B      tau(  20) = (  -0.1250000   0.5051815   0.9260529  )
        21        B      tau(  21) = (  -0.2499999   0.5773502   0.9260530  )
        22        Zr     tau(  22) = (  -0.2500000   0.4330127   1.0651439  )
        23        B      tau(  23) = (  -0.1250000   0.5051815   1.2047801  )
        24        B      tau(  24) = (  -0.2499999   0.5773502   1.2047801  )
        25        Zr     tau(  25) = (  -0.2500000   0.4330127   1.3467058  )
        26        B      tau(  26) = (  -0.1250000   0.5051815   1.4758076  )
        27        B      tau(  27) = (  -0.2500002   0.5773503   1.4758077  )
        28        Zr     tau(  28) = (  -0.3750001   0.6495192   0.7935305  )
        29        B      tau(  29) = (  -0.2499999   0.7216878   0.9260529  )
        30        B      tau(  30) = (  -0.3749999   0.7938566   0.9260528  )
        31        Zr     tau(  31) = (  -0.3749999   0.6495189   1.0651438  )
        32        B      tau(  32) = (  -0.2499999   0.7216878   1.2047800  )
        33        B      tau(  33) = (  -0.3749999   0.7938566   1.2047800  )
        34        Zr     tau(  34) = (  -0.3750000   0.6495191   1.3467057  )
        35        B      tau(  35) = (  -0.2500002   0.7216879   1.4758076  )
        36        B      tau(  36) = (  -0.3750000   0.7938566   1.4758076  )
        37        Zr     tau(  37) = (   0.2499998   0.0000000   0.7935305  )
        38        B      tau(  38) = (   0.3750001   0.0721688   0.9260530  )
        39        B      tau(  39) = (   0.2500001   0.1443376   0.9260529  )
        40        Zr     tau(  40) = (   0.2500001   0.0000000   1.0651438  )
        41        B      tau(  41) = (   0.3750001   0.0721688   1.2047801  )
        42        B      tau(  42) = (   0.2500001   0.1443376   1.2047800  )
        43        Zr     tau(  43) = (   0.2500000   0.0000000   1.3467057  )
        44        B      tau(  44) = (   0.3749998   0.0721686   1.4758077  )
        45        B      tau(  45) = (   0.2499998   0.1443375   1.4758076  )
        46        Zr     tau(  46) = (   0.1249999   0.2165062   0.7935305  )
        47        B      tau(  47) = (   0.2500001   0.2886752   0.9260530  )
        48        B      tau(  48) = (   0.1250000   0.3608440   0.9260530  )
        49        Zr     tau(  49) = (   0.1250001   0.2165065   1.0651438  )
        50        B      tau(  50) = (   0.2500001   0.2886752   1.2047801  )
        51        B      tau(  51) = (   0.1250000   0.3608440   1.2047801  )
        52        Zr     tau(  52) = (   0.1250000   0.2165063   1.3467057  )
        53        B      tau(  53) = (   0.2499998   0.2886751   1.4758077  )
        54        B      tau(  54) = (   0.1250001   0.3608437   1.4758077  )
        55        Zr     tau(  55) = (   0.0000000   0.4330127   0.7935306  )
        56        B      tau(  56) = (   0.1250000   0.5051815   0.9260529  )
        57        B      tau(  57) = (  -0.0000000   0.5773503   0.9260530  )
        58        Zr     tau(  58) = (   0.0000000   0.4330127   1.0651439  )
        59        B      tau(  59) = (   0.1250000   0.5051815   1.2047801  )
        60        B      tau(  60) = (  -0.0000000   0.5773503   1.2047801  )
        61        Zr     tau(  61) = (   0.0000000   0.4330124   1.3467059  )
        62        B      tau(  62) = (   0.1250000   0.5051815   1.4758076  )
        63        B      tau(  63) = (  -0.0000000   0.5773503   1.4758077  )
        64        Zr     tau(  64) = (  -0.1250000   0.6495190   0.7935306  )
        65        B      tau(  65) = (   0.0000000   0.7216878   0.9260529  )
        66        B      tau(  66) = (  -0.1249999   0.7938566   0.9260530  )
        67        Zr     tau(  67) = (  -0.1250000   0.6495190   1.0651439  )
        68        B      tau(  68) = (   0.0000000   0.7216878   1.2047801  )
        69        B      tau(  69) = (  -0.1249999   0.7938566   1.2047801  )
        70        Zr     tau(  70) = (  -0.1250002   0.6495192   1.3467059  )
        71        B      tau(  71) = (   0.0000000   0.7216879   1.4758076  )
        72        B      tau(  72) = (  -0.1250002   0.7938568   1.4758077  )
        73        Zr     tau(  73) = (   0.5000000   0.0000000   0.7935306  )
        74        B      tau(  74) = (   0.6249999   0.0721688   0.9260530  )
        75        B      tau(  75) = (   0.5000000   0.1443376   0.9260529  )
        76        Zr     tau(  76) = (   0.5000000   0.0000000   1.0651439  )
        77        B      tau(  77) = (   0.6249999   0.0721688   1.2047801  )
        78        B      tau(  78) = (   0.5000000   0.1443376   1.2047801  )
        79        Zr     tau(  79) = (   0.5000000   0.0000000   1.3467058  )
        80        B      tau(  80) = (   0.6250002   0.0721686   1.4758077  )
        81        B      tau(  81) = (   0.5000000   0.1443375   1.4758076  )
        82        Zr     tau(  82) = (   0.3750000   0.2165064   0.7935306  )
        83        B      tau(  83) = (   0.5000000   0.2886751   0.9260530  )
        84        B      tau(  84) = (   0.3750000   0.3608439   0.9260529  )
        85        Zr     tau(  85) = (   0.3750000   0.2165064   1.0651439  )
        86        B      tau(  86) = (   0.5000000   0.2886751   1.2047801  )
        87        B      tau(  87) = (   0.3750000   0.3608439   1.2047801  )
        88        Zr     tau(  88) = (   0.3749998   0.2165062   1.3467059  )
        89        B      tau(  89) = (   0.5000000   0.2886751   1.4758077  )
        90        B      tau(  90) = (   0.3750000   0.3608439   1.4758076  )
        91        Zr     tau(  91) = (   0.2500000   0.4330127   0.7935306  )
        92        B      tau(  92) = (   0.3750000   0.5051814   0.9260530  )
        93        B      tau(  93) = (   0.2499999   0.5773502   0.9260530  )
        94        Zr     tau(  94) = (   0.2500000   0.4330127   1.0651439  )
        95        B      tau(  95) = (   0.3750000   0.5051814   1.2047801  )
        96        B      tau(  96) = (   0.2499999   0.5773502   1.2047801  )
        97        Zr     tau(  97) = (   0.2500000   0.4330127   1.3467058  )
        98        B      tau(  98) = (   0.3749999   0.5051817   1.4758077  )
        99        B      tau(  99) = (   0.2500002   0.5773503   1.4758077  )
       100        Zr     tau( 100) = (   0.1250000   0.6495190   0.7935306  )
       101        B      tau( 101) = (   0.2499999   0.7216878   0.9260529  )
       102        B      tau( 102) = (   0.1249999   0.7938566   0.9260530  )
       103        Zr     tau( 103) = (   0.1250000   0.6495190   1.0651439  )
       104        B      tau( 104) = (   0.2499999   0.7216878   1.2047800  )
       105        B      tau( 105) = (   0.1249999   0.7938566   1.2047801  )
       106        Zr     tau( 106) = (   0.1250002   0.6495192   1.3467059  )
       107        B      tau( 107) = (   0.2500002   0.7216879   1.4758076  )
       108        B      tau( 108) = (   0.1250002   0.7938568   1.4758077  )
       109        Zr     tau( 109) = (   0.7500002   0.0000000   0.7935305  )
       110        B      tau( 110) = (   0.8749999   0.0721688   0.9260528  )
       111        B      tau( 111) = (   0.7499999   0.1443376   0.9260529  )
       112        Zr     tau( 112) = (   0.7499999   0.0000000   1.0651438  )
       113        B      tau( 113) = (   0.8749999   0.0721689   1.2047800  )
       114        B      tau( 114) = (   0.7499999   0.1443376   1.2047800  )
       115        Zr     tau( 115) = (   0.7500000   0.0000000   1.3467057  )
       116        B      tau( 116) = (   0.8750000   0.0721688   1.4758076  )
       117        B      tau( 117) = (   0.7500002   0.1443375   1.4758076  )
       118        Zr     tau( 118) = (   0.6250000   0.2165064   0.7935306  )
       119        B      tau( 119) = (   0.7499999   0.2886752   0.9260530  )
       120        B      tau( 120) = (   0.6250000   0.3608439   0.9260529  )
       121        Zr     tau( 121) = (   0.6250000   0.2165064   1.0651439  )
       122        B      tau( 122) = (   0.7499999   0.2886752   1.2047801  )
       123        B      tau( 123) = (   0.6250000   0.3608439   1.2047801  )
       124        Zr     tau( 124) = (   0.6250003   0.2165062   1.3467059  )
       125        B      tau( 125) = (   0.7500002   0.2886751   1.4758077  )
       126        B      tau( 126) = (   0.6250000   0.3608439   1.4758076  )
       127        Zr     tau( 127) = (   0.5000000   0.4330127   0.7935306  )
       128        B      tau( 128) = (   0.6250000   0.5051814   0.9260530  )
       129        B      tau( 129) = (   0.5000000   0.5773501   0.9260529  )
       130        Zr     tau( 130) = (   0.5000000   0.4330127   1.0651439  )
       131        B      tau( 131) = (   0.6250001   0.5051814   1.2047801  )
       132        B      tau( 132) = (   0.5000000   0.5773501   1.2047800  )
       133        Zr     tau( 133) = (   0.5000000   0.4330130   1.3467059  )
       134        B      tau( 134) = (   0.6250001   0.5051817   1.4758077  )
       135        B      tau( 135) = (   0.5000000   0.5773505   1.4758076  )
       136        Zr     tau( 136) = (   0.3750001   0.6495192   0.7935305  )
       137        B      tau( 137) = (   0.5000000   0.7216877   0.9260528  )
       138        B      tau( 138) = (   0.3749999   0.7938566   0.9260528  )
       139        Zr     tau( 139) = (   0.3749999   0.6495189   1.0651438  )
       140        B      tau( 140) = (   0.5000000   0.7216877   1.2047800  )
       141        B      tau( 141) = (   0.3749999   0.7938566   1.2047800  )
       142        Zr     tau( 142) = (   0.3750000   0.6495191   1.3467057  )
       143        B      tau( 143) = (   0.5000000   0.7216879   1.4758076  )
       144        B      tau( 144) = (   0.3750000   0.7938566   1.4758076  )
       145        O      tau( 145) = (   0.3749422   0.3607934   1.5937140  )

     number of k points=     4  Gaussian smearing, width (Ry)=  0.0100
                       cart. coord. in units 2pi/alat
        k(    1) = (   0.0000000   0.0000000   0.0000000), wk =   0.5000000
        k(    2) = (   0.0000000  -0.5773505   0.0000000), wk =   0.5000000
        k(    3) = (   0.5000000  -0.2886753   0.0000000), wk =   0.5000000
        k(    4) = (  -0.5000000  -0.2886753   0.0000000), wk =   0.5000000

     Dense  grid:  3688607 G-vectors     FFT dimensions: ( 160, 160, 360)

     Smooth grid:  1303991 G-vectors     FFT dimensions: ( 120, 120, 250)

     Estimated max dynamical RAM per process >     745.81 MB

     Estimated total dynamical RAM >      45.73 GB

     Atomic positions and unit cell read from directory:
     ./tmp/pwscf.save/
     Atomic positions from file used, from input discarded


     The initial density is read from file :
     ./tmp/pwscf.save/charge-density


     negative rho (up, down):  6.812E-03 0.000E+00
     Cannot read wfcs: file not found
     Starting wfcs are 1012 randomized atomic wfcs
     Checking if some PAW data can be deallocated... 

     total cpu time spent up to now is       81.0 secs

     per-process dynamical memory:   473.3 Mb

     Self-consistent Calculation

     iteration #  1     ecut=    50.00 Ry     beta= 0.70
     Davidson diagonalization with overlap
     c_bands:  1 eigenvalues not converged
     ethr =  1.00E-05,  avg # of iterations = 19.2

     Threshold (ethr) on eigenvalues was too large:
     Diagonalizing with lowered threshold

     Davidson diagonalization with overlap
     ethr =  3.97E-09,  avg # of iterations =  8.5

     negative rho (up, down):  6.825E-03 0.000E+00

     total cpu time spent up to now is      682.0 secs

     total energy              =  -15893.70130735 Ry
     estimated scf accuracy    <       0.00001114 Ry

     iteration #  2     ecut=    50.00 Ry     beta= 0.70
     Davidson diagonalization with overlap
     ethr =  1.28E-09,  avg # of iterations =  2.0

     negative rho (up, down):  6.830E-03 0.000E+00

     total cpu time spent up to now is      786.1 secs

     total energy              =  -15893.70130766 Ry
     estimated scf accuracy    <       0.00000108 Ry

     iteration #  3     ecut=    50.00 Ry     beta= 0.70
     Davidson diagonalization with overlap
     ethr =  1.24E-10,  avg # of iterations =  4.2

     negative rho (up, down):  6.835E-03 0.000E+00

     total cpu time spent up to now is      900.3 secs

     total energy              =  -15893.70130774 Ry
     estimated scf accuracy    <       0.00000026 Ry

     iteration #  4     ecut=    50.00 Ry     beta= 0.70
     Davidson diagonalization with overlap
     ethr =  2.98E-11,  avg # of iterations =  4.0

     negative rho (up, down):  6.812E-03 0.000E+00

     total cpu time spent up to now is     1006.2 secs

     End of self-consistent calculation

          k = 0.0000 0.0000 0.0000 (162831 PWs)   bands (ev):

   -46.4382 -46.3865 -46.3863 -46.3860 -46.3855 -46.3851 -46.3843 -46.3342
   -46.3337 -46.3334 -46.3327 -46.3323 -46.3320 -46.3318 -46.3313 -46.3300
   -46.0066 -45.9559 -45.9541 -45.9527 -45.9487 -45.9478 -45.9474 -45.9018
   -45.9009 -45.8966 -45.8958 -45.8948 -45.8930 -45.8917 -45.8905 -45.8891
   -45.8440 -45.8187 -45.7788 -45.7754 -45.7534 -45.7263 -45.7208 -45.7068
   -45.7039 -45.6880 -45.6816 -45.6653 -45.6557 -45.6507 -45.6313 -45.6271
   -24.8580 -24.8579 -24.8575 -24.7690 -24.7068 -24.7068 -24.7063 -24.7059
   -24.7052 -24.7047 -24.6885 -24.6883 -24.6878 -24.6877 -24.6871 -24.6861
   -24.5979 -24.5973 -24.5961 -24.5955 -24.5948 -24.5945 -24.5937 -24.5936
   -24.5920 -24.5432 -24.5419 -24.5415 -24.4501 -24.4495 -24.4492 -24.4489
   -24.4488 -24.4481 -24.3840 -24.3833 -24.3832 -24.3828 -24.3824 -24.3819
   -24.3803 -24.3798 -24.3791 -24.3766 -24.3763 -24.3751 -24.3682 -24.3650
   -24.3585 -24.3560 -24.2725 -24.2699 -24.2692 -24.2652 -24.2640 -24.2629
   -24.2147 -24.2141 -24.2137 -24.1977 -24.1960 -24.1916 -24.1859 -24.1835
   -24.1737 -24.1730 -24.1689 -24.1670 -24.1650 -24.1641 -24.1614 -24.1608
   -24.1596 -24.1583 -24.1502 -24.1214 -24.1206 -24.1202 -24.1190 -24.1184
   -24.1174 -24.1174 -24.1155 -24.1153 -24.1138 -24.1133 -24.1125 -24.0893
   -24.0617 -24.0574 -24.0488 -24.0382 -24.0376 -24.0368 -24.0355 -24.0347
   -24.0339 -24.0293 -24.0228 -24.0227 -24.0161 -23.9903 -23.9737 -23.9652
   -23.9476 -23.9466 -23.9352 -23.9274 -23.9265 -23.9250 -23.9181 -23.9173
   -23.9081 -23.9045 -23.8994 -23.8934 -23.8564 -23.8556 -23.8552 -23.8535
   -23.8476 -23.8460 -23.8368 -23.8215 -23.8101 -23.7582 -23.7573 -23.7571
   -23.7561 -23.7558 -23.7532 -23.6552 -23.6549 -23.6547 -23.6494 -23.6470
   -23.5698 -23.5623 -23.5554 -23.5381 -23.5313 -23.5218 -23.4361 -23.4337
   -16.7437  -9.6914  -8.8236  -8.6498  -8.6468  -8.6465  -8.6420  -8.6415
    -8.6407  -8.1097  -8.1056  -8.1037  -8.0983  -8.0978  -8.0950  -7.4708
    -7.0400  -7.0399  -7.0359  -7.0356  -7.0356  -7.0319  -7.0050  -7.0046
    -6.9982  -6.9201  -6.9185  -6.8474  -6.8424  -6.8339  -6.8330  -6.8278
    -6.8271  -6.8216  -6.8191  -6.8002  -6.6970  -6.3623  -6.3616  -6.3477
    -5.9578  -5.9573  -5.9569  -5.6367  -5.6078  -5.5158  -5.4391  -5.4339
    -5.3676  -5.1348  -5.1322  -5.1307  -5.0536  -5.0329  -4.9442  -4.6015
    -4.6013  -4.5980  -4.5976  -4.5972  -4.5967  -4.2439  -4.2399  -4.2375
    -4.2369  -4.2325  -4.2323  -3.8506  -3.8102  -3.7918  -3.6921  -3.1637
    -3.1122  -3.0709  -3.0604  -3.0512  -3.0234  -2.9118  -2.9112  -2.9105
    -2.9104  -2.9074  -2.9074  -2.7425  -2.7423  -2.7406  -2.7378  -2.7365
    -2.7359  -2.4698  -2.4675  -2.4673  -2.4618  -2.4592  -2.4587  -2.4562
    -2.4460  -2.4453  -2.4399  -2.4393  -2.4359  -2.2793  -2.2473  -2.2202
    -2.2075  -2.1930  -2.1890  -2.1858  -1.9618  -1.8582  -1.7719  -1.7234
    -1.7192  -1.7179  -1.3312  -1.3297  -1.3194  -1.3028  -1.3022  -1.2757
    -1.2282  -1.2253  -1.2201  -1.2139  -1.0796  -1.0357  -1.0145  -1.0139
    -1.0109  -0.9770  -0.9714  -0.9673  -0.9499  -0.9439  -0.8703  -0.8375
    -0.7930  -0.7925  -0.7905  -0.7892  -0.7891  -0.7857  -0.7842  -0.7840
    -0.7712  -0.6346  -0.6343  -0.6318  -0.6311  -0.6308  -0.6286  -0.5840
    -0.5134  -0.4824  -0.3029  -0.2998  -0.2980  -0.2961  -0.2927  -0.2905
    -0.2898  -0.2867  -0.2816  -0.2799  -0.1592  -0.1217  -0.0479   0.0036
     0.0364   0.0960   0.1035   0.1235   0.1288   0.1315   0.1317   0.1401
     0.1414   0.1430   0.1633   0.1660   0.1667   0.1700   0.1727   0.1770
     0.1807   0.1815   0.2093   0.2435   0.3083   0.3385   0.5586   0.6239
     0.8239   0.8259   0.8583   0.8691   0.8726   0.8814   0.8935   0.8984
     0.9056   0.9101   0.9180   0.9262   0.9292   0.9310   0.9331   0.9358
     0.9378   0.9471   1.1032   1.1048   1.1053   1.1087   1.1093   1.1102
     1.2834   1.3722   1.4596   1.7501   1.8229   1.8241   1.8560   1.8817
     1.8833   1.8838   1.8853   1.8858   1.8882   1.9173   1.9955   2.1256
     2.1307   2.1631   2.2083   2.2091   2.2098   2.2103   2.2106   2.2106
     2.3205   2.4100   2.4259   2.4664   2.4860   2.4884   2.5003   2.5043
     2.5135   2.5249   2.5256   2.5278   2.6392   2.7777   3.0447   3.1973
     3.2245   3.2246   3.2248   3.2783   3.2787   3.5098   3.5333   3.5580
     3.6460   3.7404   3.7591   3.7929   3.8012   3.8028   3.8030   3.8031
     3.8063   3.8090   3.8102   3.8176   3.8218   3.8310   3.8801   3.9085
     4.0801   4.2276   4.2359   4.2633   4.2663   4.2721   4.3534   4.6759
     4.6905   4.6957   4.6965   4.6982   4.7040   4.7063   4.7112   4.7173
     4.7300   4.7523   4.7543   4.8242   4.8287   4.8425   4.8492   4.8511
     4.8543   4.8661   4.8701   4.8962   4.9009   4.9093   4.9339   4.9356
     4.9359   4.9440   4.9454   4.9458   5.0390   5.1769   5.1801   5.2075
     5.2123   5.2138   5.2184   5.2224   5.2273   5.2287   5.2380   5.2420
     5.2529   5.4778

          k = 0.0000-0.5774 0.0000 (163042 PWs)   bands (ev):

   -46.4231 -46.4227 -46.3970 -46.3961 -46.3599 -46.3595 -46.3587 -46.3584
   -46.3486 -46.3475 -46.3329 -46.3326 -46.3321 -46.3319 -46.3217 -46.3207
   -45.9928 -45.9883 -45.9631 -45.9620 -45.9255 -45.9247 -45.9237 -45.9206
   -45.9124 -45.9100 -45.9001 -45.8942 -45.8931 -45.8924 -45.8827 -45.8820
   -45.8423 -45.8200 -45.7814 -45.7779 -45.7445 -45.7326 -45.7223 -45.7070
   -45.6956 -45.6925 -45.6755 -45.6702 -45.6577 -45.6513 -45.6304 -45.6266
   -24.7953 -24.7952 -24.7935 -24.7928 -24.7470 -24.7453 -24.7447 -24.7441
   -24.7091 -24.7084 -24.7043 -24.7035 -24.6591 -24.6587 -24.6583 -24.6578
   -24.6191 -24.6180 -24.5975 -24.5970 -24.5970 -24.5968 -24.5964 -24.5962
   -24.5957 -24.5956 -24.5798 -24.5789 -24.4838 -24.4826 -24.4774 -24.4754
   -24.4718 -24.4712 -24.4224 -24.4173 -24.3837 -24.3825 -24.3499 -24.3488
   -24.3409 -24.3356 -24.3188 -24.3108 -24.2885 -24.2875 -24.2868 -24.2861
   -24.2860 -24.2857 -24.2847 -24.2845 -24.2844 -24.2842 -24.2690 -24.2609
   -24.2549 -24.2191 -24.2172 -24.2171 -24.2162 -24.2151 -24.2148 -24.2146
   -24.2140 -24.2140 -24.1962 -24.1954 -24.1929 -24.1872 -24.1859 -24.1744
   -24.1692 -24.1687 -24.1617 -24.1615 -24.1528 -24.1495 -24.1462 -24.1436
   -24.1432 -24.1417 -24.1374 -24.1152 -24.1141 -24.1118 -24.1022 -24.0985
   -24.0884 -24.0822 -24.0797 -24.0558 -24.0516 -24.0509 -24.0265 -24.0131
   -24.0069 -24.0052 -24.0028 -23.9948 -23.9760 -23.9653 -23.9553 -23.9523
   -23.9415 -23.9383 -23.9343 -23.9316 -23.9314 -23.9309 -23.9287 -23.9242
   -23.8967 -23.8939 -23.8578 -23.8576 -23.8565 -23.8562 -23.8288 -23.8246
   -23.8242 -23.8033 -23.7937 -23.7923 -23.7626 -23.7563 -23.7521 -23.7510
   -23.7118 -23.7062 -23.6860 -23.6834 -23.6773 -23.6692 -23.6455 -23.6362
   -23.6240 -23.6079 -23.5973 -23.5673 -23.5422 -23.5123 -23.4888 -23.4513
   -16.7437  -9.4130  -9.4096  -8.8889  -8.8868  -8.6256  -8.6216  -8.2656
    -8.2606  -7.9589  -7.9570  -7.9547  -7.9541  -7.6487  -7.6458  -7.6423
    -7.6395  -7.5644  -7.5615  -7.3978  -7.3850  -7.3236  -7.2956  -7.0372
    -7.0133  -7.0092  -7.0084  -7.0075  -6.9485  -6.7070  -6.7009  -6.6970
    -6.6941  -6.4216  -6.4045  -6.3835  -6.3833  -6.3351  -6.2292  -6.0892
    -5.9995  -5.8258  -5.8242  -5.5904  -5.5220  -5.5172  -5.4817  -5.4813
    -5.4644  -5.2481  -5.2465  -5.0908  -5.0733  -5.0714  -5.0706  -4.6639
    -4.6428  -4.6297  -4.6186  -4.5495  -4.5056  -4.4651  -4.4624  -4.0403
    -4.0185  -4.0007  -3.9963  -3.6791  -3.6367  -3.5818  -3.5809  -3.5799
    -3.5793  -3.5031  -3.4740  -3.3460  -3.3439  -3.3127  -3.3094  -3.2486
    -3.2449  -3.2375  -3.2355  -2.9921  -2.9344  -2.7414  -2.7202  -2.6472
    -2.6460  -2.4173  -2.3199  -2.2454  -2.2181  -2.1412  -2.1410  -2.1361
    -2.1344  -2.0212  -1.9948  -1.9338  -1.9333  -1.8894  -1.8683  -1.8226
    -1.8185  -1.8058  -1.8045  -1.7925  -1.7780  -1.7327  -1.6993  -1.6981
    -1.6701  -1.6650  -1.6612  -1.6190  -1.6154  -1.5669  -1.5650  -1.5227
    -1.4805  -1.4730  -1.2531  -1.2465  -1.2083  -1.1858  -1.1843  -1.1714
    -1.0900  -1.0491  -0.9169  -0.9139  -0.9071  -0.8850  -0.8227  -0.8188
    -0.8133  -0.8123  -0.8070  -0.8065  -0.7970  -0.7962  -0.7887  -0.7820
    -0.7771  -0.7600  -0.7133  -0.7084  -0.6915  -0.6541  -0.4922  -0.4804
    -0.4443  -0.4370  -0.4284  -0.4250  -0.3782  -0.3441  -0.3016  -0.2761
    -0.2718  -0.2598  -0.2583  -0.2474  -0.1762  -0.1727  -0.1652  -0.1453
    -0.1419  -0.0430  -0.0157  -0.0129   0.0558   0.0598   0.0709   0.1330
     0.1354   0.1430   0.1498   0.1647   0.1945   0.2340   0.2376   0.3281
     0.3656   0.3756   0.3980   0.4032   0.4063   0.4118   0.4123   0.4263
     0.4330   0.4964   0.5273   0.6185   0.6234   0.6316   0.6376   0.7303
     0.7408   0.8349   0.8795   0.9577   0.9644   0.9964   1.1199   1.1498
     1.2001   1.2092   1.2118   1.2183   1.2214   1.2242   1.2334   1.2812
     1.3047   1.3849   1.4062   1.4694   1.6494   1.6800   1.7193   1.7750
     1.9285   1.9306   2.0359   2.0415   2.0676   2.0765   2.1332   2.1821
     2.1866   2.1892   2.2007   2.2156   2.2772   2.2844   2.3508   2.3516
     2.3704   2.3741   2.4373   2.4744   2.5140   2.5269   2.5706   2.5717
     2.5734   2.6085   2.6707   2.6713   2.6941   2.8486   2.8719   2.8742
     2.8752   2.8783   3.0466   3.1124   3.1466   3.1912   3.2176   3.5560
     3.6215   3.6297   3.6813   3.6876   3.6934   3.7024   3.7085   3.7106
     3.7864   3.7955   3.8266   3.8662   3.9227   3.9288   3.9574   3.9693
     3.9887   4.0149   4.0201   4.1478   4.2459   4.3246   4.3369   4.3620
     4.4257   4.4555   4.6898   4.6924   4.6934   4.7001   4.7273   4.7290
     4.7723   4.7905   4.8031   4.8069   4.8499   4.8949   4.9255   4.9283
     5.1019   5.1056   5.1273   5.1290   5.1574   5.1721   5.1809   5.1872
     5.1966   5.2132   5.2372   5.2484   5.2644   5.2673   5.2806   5.3064
     5.3142   5.3993   5.4265   5.4397   5.4443   5.4509   5.4711   5.5260
     5.5539   5.5894

          k = 0.5000-0.2887 0.0000 (163042 PWs)   bands (ev):

   -46.4230 -46.4227 -46.3970 -46.3961 -46.3601 -46.3593 -46.3587 -46.3585
   -46.3485 -46.3476 -46.3331 -46.3324 -46.3321 -46.3320 -46.3218 -46.3207
   -45.9927 -45.9884 -45.9631 -45.9620 -45.9256 -45.9248 -45.9236 -45.9205
   -45.9123 -45.9100 -45.9002 -45.8939 -45.8932 -45.8925 -45.8828 -45.8819
   -45.8422 -45.8200 -45.7821 -45.7772 -45.7446 -45.7322 -45.7216 -45.7094
   -45.6964 -45.6892 -45.6775 -45.6695 -45.6573 -45.6516 -45.6303 -45.6266
   -24.7953 -24.7951 -24.7935 -24.7929 -24.7470 -24.7452 -24.7448 -24.7441
   -24.7091 -24.7083 -24.7043 -24.7035 -24.6592 -24.6586 -24.6583 -24.6579
   -24.6191 -24.6181 -24.5975 -24.5971 -24.5969 -24.5968 -24.5964 -24.5960
   -24.5957 -24.5956 -24.5798 -24.5788 -24.4838 -24.4826 -24.4774 -24.4751
   -24.4720 -24.4714 -24.4223 -24.4174 -24.3838 -24.3824 -24.3499 -24.3488
   -24.3408 -24.3357 -24.3186 -24.3092 -24.2883 -24.2876 -24.2869 -24.2861
   -24.2859 -24.2858 -24.2846 -24.2845 -24.2844 -24.2842 -24.2691 -24.2626
   -24.2558 -24.2197 -24.2175 -24.2172 -24.2164 -24.2152 -24.2148 -24.2146
   -24.2141 -24.2139 -24.1958 -24.1945 -24.1929 -24.1872 -24.1860 -24.1743
   -24.1690 -24.1685 -24.1618 -24.1617 -24.1528 -24.1495 -24.1462 -24.1436
   -24.1432 -24.1418 -24.1372 -24.1152 -24.1141 -24.1118 -24.1014 -24.0974
   -24.0885 -24.0833 -24.0796 -24.0556 -24.0516 -24.0509 -24.0263 -24.0135
   -24.0068 -24.0053 -24.0022 -23.9969 -23.9732 -23.9657 -23.9550 -23.9518
   -23.9424 -23.9397 -23.9344 -23.9315 -23.9314 -23.9308 -23.9272 -23.9253
   -23.8961 -23.8944 -23.8578 -23.8577 -23.8565 -23.8562 -23.8287 -23.8246
   -23.8233 -23.8047 -23.7938 -23.7922 -23.7623 -23.7557 -23.7521 -23.7510
   -23.7136 -23.7057 -23.6860 -23.6835 -23.6771 -23.6688 -23.6455 -23.6358
   -23.6247 -23.6088 -23.5963 -23.5680 -23.5409 -23.5131 -23.4878 -23.4518
   -16.7437  -9.4130  -9.4096  -8.8888  -8.8869  -8.6255  -8.6217  -8.2655
    -8.2607  -7.9586  -7.9573  -7.9548  -7.9540  -7.6483  -7.6461  -7.6426
    -7.6393  -7.5644  -7.5615  -7.3977  -7.3851  -7.3235  -7.2962  -7.0366
    -7.0134  -7.0091  -7.0085  -7.0075  -6.9475  -6.7069  -6.7009  -6.6970
    -6.6941  -6.4229  -6.4043  -6.3834  -6.3833  -6.3354  -6.2301  -6.0935
    -5.9963  -5.8257  -5.8241  -5.5872  -5.5217  -5.5164  -5.4818  -5.4813
    -5.4654  -5.2480  -5.2465  -5.0901  -5.0736  -5.0715  -5.0704  -4.6628
    -4.6437  -4.6299  -4.6187  -4.5515  -4.5061  -4.4650  -4.4625  -4.0438
    -4.0162  -3.9997  -3.9969  -3.6796  -3.6332  -3.5817  -3.5810  -3.5798
    -3.5793  -3.5053  -3.4724  -3.3469  -3.3436  -3.3127  -3.3094  -3.2487
    -3.2446  -3.2375  -3.2356  -2.9954  -2.9354  -2.7390  -2.7206  -2.6473
    -2.6460  -2.4092  -2.3231  -2.2474  -2.2186  -2.1412  -2.1410  -2.1362
    -2.1345  -2.0207  -1.9947  -1.9338  -1.9332  -1.8893  -1.8681  -1.8256
    -1.8187  -1.8056  -1.8045  -1.7934  -1.7778  -1.7325  -1.6997  -1.6969
    -1.6703  -1.6649  -1.6612  -1.6189  -1.6152  -1.5668  -1.5645  -1.5200
    -1.4804  -1.4730  -1.2536  -1.2467  -1.2083  -1.1859  -1.1849  -1.1730
    -1.0915  -1.0457  -0.9169  -0.9132  -0.9068  -0.8854  -0.8228  -0.8186
    -0.8132  -0.8122  -0.8073  -0.8065  -0.7972  -0.7961  -0.7887  -0.7816
    -0.7773  -0.7604  -0.7142  -0.7087  -0.6896  -0.6554  -0.4926  -0.4810
    -0.4451  -0.4367  -0.4284  -0.4258  -0.3780  -0.3443  -0.3025  -0.2756
    -0.2715  -0.2600  -0.2581  -0.2474  -0.1765  -0.1723  -0.1661  -0.1457
    -0.1403  -0.0419  -0.0156  -0.0130   0.0546   0.0608   0.0675   0.1331
     0.1359   0.1443   0.1497   0.1665   0.1967   0.2338   0.2375   0.3253
     0.3661   0.3759   0.3975   0.4035   0.4066   0.4118   0.4125   0.4264
     0.4330   0.4918   0.5292   0.6179   0.6239   0.6312   0.6374   0.7303
     0.7430   0.8350   0.8820   0.9568   0.9649   0.9974   1.1233   1.1480
     1.2001   1.2086   1.2117   1.2178   1.2223   1.2235   1.2337   1.2813
     1.3070   1.3795   1.4057   1.4689   1.6444   1.6805   1.7113   1.7863
     1.9284   1.9306   2.0363   2.0422   2.0686   2.0754   2.1326   2.1815
     2.1865   2.1894   2.2014   2.2147   2.2781   2.2832   2.3512   2.3521
     2.3700   2.3739   2.4360   2.4828   2.5141   2.5289   2.5704   2.5707
     2.5734   2.6095   2.6707   2.6712   2.6876   2.8468   2.8719   2.8742
     2.8753   2.8781   3.0443   3.1152   3.1469   3.1902   3.2200   3.5584
     3.6223   3.6292   3.6818   3.6874   3.6936   3.7025   3.7096   3.7114
     3.7866   3.7954   3.8247   3.8654   3.9218   3.9279   3.9585   3.9677
     3.9877   4.0145   4.0204   4.1476   4.2460   4.3251   4.3367   4.3607
     4.4267   4.4547   4.6899   4.6924   4.6933   4.7000   4.7273   4.7289
     4.7742   4.7902   4.8026   4.8075   4.8499   4.8961   4.9228   4.9287
     5.1028   5.1077   5.1256   5.1276   5.1582   5.1725   5.1803   5.1880
     5.1962   5.2132   5.2368   5.2488   5.2643   5.2663   5.2791   5.3074
     5.3149   5.4001   5.4262   5.4396   5.4452   5.4508   5.4694   5.5274
     5.5552   5.5899

          k =-0.5000-0.2887 0.0000 (163042 PWs)   bands (ev):

   -46.4232 -46.4225 -46.3969 -46.3963 -46.3597 -46.3595 -46.3591 -46.3581
   -46.3489 -46.3471 -46.3341 -46.3321 -46.3317 -46.3317 -46.3216 -46.3209
   -45.9926 -45.9885 -45.9627 -45.9623 -45.9251 -45.9247 -45.9234 -45.9215
   -45.9128 -45.9096 -45.8987 -45.8965 -45.8932 -45.8911 -45.8827 -45.8822
   -45.8417 -45.8216 -45.7803 -45.7763 -45.7452 -45.7349 -45.7252 -45.6974
   -45.6953 -45.6938 -45.6842 -45.6635 -45.6606 -45.6506 -45.6305 -45.6266
   -24.7949 -24.7949 -24.7937 -24.7936 -24.7465 -24.7451 -24.7447 -24.7446
   -24.7090 -24.7081 -24.7044 -24.7035 -24.6591 -24.6587 -24.6585 -24.6576
   -24.6193 -24.6177 -24.5981 -24.5973 -24.5970 -24.5966 -24.5965 -24.5960
   -24.5959 -24.5950 -24.5798 -24.5789 -24.4834 -24.4833 -24.4764 -24.4749
   -24.4726 -24.4723 -24.4217 -24.4179 -24.3834 -24.3823 -24.3495 -24.3494
   -24.3406 -24.3360 -24.3101 -24.2926 -24.2900 -24.2884 -24.2875 -24.2863
   -24.2858 -24.2854 -24.2850 -24.2843 -24.2840 -24.2839 -24.2830 -24.2815
   -24.2477 -24.2300 -24.2189 -24.2162 -24.2160 -24.2154 -24.2148 -24.2147
   -24.2146 -24.2139 -24.1966 -24.1921 -24.1869 -24.1865 -24.1832 -24.1782
   -24.1704 -24.1673 -24.1615 -24.1613 -24.1530 -24.1491 -24.1465 -24.1433
   -24.1432 -24.1422 -24.1358 -24.1162 -24.1148 -24.1144 -24.0973 -24.0962
   -24.0880 -24.0808 -24.0702 -24.0640 -24.0521 -24.0506 -24.0307 -24.0157
   -24.0064 -24.0061 -24.0007 -23.9847 -23.9749 -23.9640 -23.9626 -23.9562
   -23.9416 -23.9360 -23.9339 -23.9338 -23.9306 -23.9291 -23.9277 -23.9235
   -23.8969 -23.8940 -23.8579 -23.8570 -23.8568 -23.8564 -23.8283 -23.8252
   -23.8196 -23.8028 -23.7946 -23.7909 -23.7623 -23.7561 -23.7518 -23.7511
   -23.7316 -23.7042 -23.6864 -23.6834 -23.6642 -23.6624 -23.6526 -23.6423
   -23.6247 -23.6093 -23.5933 -23.5691 -23.5288 -23.5255 -23.4857 -23.4511
   -16.7437  -9.4125  -9.4101  -8.8881  -8.8875  -8.6257  -8.6217  -8.2646
    -8.2614  -7.9587  -7.9573  -7.9547  -7.9539  -7.6493  -7.6451  -7.6430
    -7.6389  -7.5643  -7.5616  -7.3980  -7.3854  -7.3250  -7.2962  -7.0367
    -7.0127  -7.0092  -7.0090  -7.0075  -6.9408  -6.7057  -6.7008  -6.6979
    -6.6948  -6.4189  -6.4088  -6.3834  -6.3830  -6.3330  -6.2355  -6.1183
    -5.9879  -5.8254  -5.8229  -5.5692  -5.5208  -5.5126  -5.4820  -5.4815
    -5.4677  -5.2471  -5.2469  -5.0851  -5.0746  -5.0712  -5.0703  -4.6592
    -4.6495  -4.6299  -4.6210  -4.5484  -4.5081  -4.4645  -4.4629  -4.0840
    -4.0114  -3.9993  -3.9987  -3.6832  -3.5819  -3.5814  -3.5803  -3.5797
    -3.5753  -3.5075  -3.4705  -3.3537  -3.3412  -3.3131  -3.3091  -3.2485
    -3.2429  -3.2377  -3.2368  -3.0225  -2.9560  -2.7301  -2.7170  -2.6475
    -2.6465  -2.3258  -2.3216  -2.3131  -2.2219  -2.1415  -2.1411  -2.1364
    -2.1349  -2.0314  -1.9911  -1.9335  -1.9330  -1.8923  -1.8610  -1.8384
    -1.8185  -1.8062  -1.8032  -1.8024  -1.7784  -1.7293  -1.7030  -1.6922
    -1.6731  -1.6655  -1.6589  -1.6156  -1.6108  -1.5643  -1.5641  -1.5116
    -1.4800  -1.4725  -1.2638  -1.2482  -1.1991  -1.1886  -1.1835  -1.1704
    -1.1152  -0.9800  -0.9114  -0.9096  -0.9061  -0.8913  -0.8227  -0.8185
    -0.8128  -0.8123  -0.8098  -0.8040  -0.7977  -0.7935  -0.7875  -0.7810
    -0.7777  -0.7639  -0.7314  -0.7069  -0.6766  -0.6676  -0.4941  -0.4721
    -0.4481  -0.4405  -0.4339  -0.4249  -0.3803  -0.3367  -0.3129  -0.2866
    -0.2725  -0.2627  -0.2558  -0.2490  -0.1827  -0.1719  -0.1683  -0.1449
    -0.1345  -0.0544  -0.0152  -0.0127   0.0391   0.0507   0.0671   0.1336
     0.1387   0.1442   0.1508   0.1681   0.2279   0.2350   0.2426   0.2894
     0.3674   0.3764   0.3985   0.4015   0.4033   0.4100   0.4191   0.4274
     0.4327   0.4791   0.5383   0.6173   0.6261   0.6288   0.6360   0.7305
     0.7772   0.8477   0.8855   0.9610   0.9664   1.0136   1.1288   1.1318
     1.1973   1.2042   1.2095   1.2135   1.2207   1.2275   1.2309   1.2869
     1.2955   1.3409   1.3929   1.4656   1.6551   1.6816   1.6961   1.8165
     1.9281   1.9305   2.0329   2.0468   2.0739   2.0838   2.1430   2.1810
     2.1841   2.1954   2.2026   2.2181   2.2731   2.2867   2.3109   2.3634
     2.3696   2.3719   2.4278   2.5115   2.5143   2.5181   2.5706   2.5734
     2.5827   2.6151   2.6709   2.6714   2.7271   2.8708   2.8730   2.8742
     2.8752   2.8922   2.9233   3.1413   3.1445   3.1901   3.1969   3.6000
     3.6172   3.6314   3.6837   3.6863   3.6912   3.7029   3.7099   3.7683
     3.7843   3.8045   3.8060   3.8593   3.9060   3.9255   3.9522   3.9724
     3.9779   4.0131   4.0250   4.1049   4.2447   4.3149   4.3354   4.3449
     4.4341   4.4702   4.6898   4.6913   4.6933   4.6986   4.7274   4.7280
     4.7837   4.7924   4.7966   4.8121   4.8390   4.9043   4.9127   4.9700
     5.1065   5.1195   5.1216   5.1273   5.1611   5.1734   5.1813   5.1868
     5.1966   5.2307   5.2342   5.2571   5.2591   5.2634   5.2647   5.3095
     5.3127   5.3816   5.4211   5.4413   5.4469   5.4478   5.4539   5.5575
     5.5605   5.6271

     the Fermi energy is     2.4388 ev

!    total energy              =  -15893.70130776 Ry
     total all-electron energy =   -350412.196244 Ry
     estimated scf accuracy    <       0.00000005 Ry
     smearing contrib. (-TS)   =      -0.04922733 Ry
     internal energy E=F+TS    =  -15893.65208043 Ry

     The total energy is F=E-TS. E is the sum of the following terms:
     one-electron contribution =  -69765.95323382 Ry
     hartree contribution      =   35024.13960687 Ry
     xc contribution           =   -1156.10755998 Ry
     ewald contribution        =   30594.99904562 Ry
     one-center paw contrib.   =  -10590.72993913 Ry

     convergence has been achieved in   4 iterations

     negative rho (up, down):  6.812E-03 0.000E+00

     Forces acting on atoms (cartesian axes, Ry/au):

     atom    1 type  1   force =     0.00010985    0.00004567    0.00023922
     atom    2 type  2   force =     0.00046129   -0.00018772    0.00056030
     atom    3 type  2   force =     0.00012900    0.00008445    0.00083707
     atom    4 type  1   force =     0.00063901    0.00004891   -0.00034263
     atom    5 type  2   force =     0.00036585    0.00096733   -0.00013953
     atom    6 type  2   force =     0.00127512    0.00074846   -0.00029792
     atom    7 type  1   force =     0.00031973    0.00065818    0.00250014
     atom    8 type  2   force =     0.00206091    0.00303515    0.00185780
     atom    9 type  2   force =     0.00448688    0.00260592    0.00191002
     atom   10 type  1   force =     0.00008783    0.00009708    0.00023634
     atom   11 type  2   force =     0.00006002    0.00050152    0.00055342
     atom   12 type  2   force =     0.00005896    0.00014152   -0.00002792
     atom   13 type  1   force =     0.00033954    0.00054831   -0.00034377
     atom   14 type  2   force =     0.00100322   -0.00015485   -0.00016815
     atom   15 type  2   force =     0.00020743   -0.00116760   -0.00007376
     atom   16 type  1   force =     0.00079113   -0.00004259    0.00248191
     atom   17 type  2   force =     0.00368318    0.00026999    0.00186869
     atom   18 type  2   force =     0.00042210   -0.00238407   -0.00033711
     atom   19 type  1   force =     0.00025171    0.00009849   -0.00007895
     atom   20 type  2   force =     0.00007192    0.00029921    0.00062914
     atom   21 type  2   force =     0.00016505    0.00009659    0.00009348
     atom   22 type  1   force =     0.00013885    0.00016558    0.00033163
     atom   23 type  2   force =     0.00009368   -0.00055998    0.00151199
     atom   24 type  2   force =     0.00046089    0.00026321    0.00142276
     atom   25 type  1   force =     0.00016401   -0.00123310    0.00097704
     atom   26 type  2   force =    -0.00024028   -0.00101604    0.00182936
     atom   27 type  2   force =     0.00169081    0.00090703    0.00049468
     atom   28 type  1   force =     0.00021825    0.00017666   -0.00008190
     atom   29 type  2   force =     0.00028782   -0.00008370    0.00063623
     atom   30 type  2   force =     0.00014435   -0.00001023   -0.00003105
     atom   31 type  1   force =     0.00022412    0.00006901    0.00030356
     atom   32 type  2   force =    -0.00044527    0.00036373    0.00152160
     atom   33 type  2   force =    -0.00090711    0.00078195   -0.00008683
     atom   34 type  1   force =    -0.00095076    0.00070161    0.00102328
     atom   35 type  2   force =    -0.00097628    0.00033707    0.00185506
     atom   36 type  2   force =    -0.00179656    0.00154249   -0.00037664
     atom   37 type  1   force =    -0.00007529   -0.00025122   -0.00010654
     atom   38 type  2   force =     0.00002112   -0.00032936   -0.00001929
     atom   39 type  2   force =     0.00041455   -0.00023335    0.00004623
     atom   40 type  1   force =     0.00008384   -0.00022476    0.00029587
     atom   41 type  2   force =     0.00013973   -0.00115267    0.00065632
     atom   42 type  2   force =     0.00049694   -0.00068027   -0.00026560
     atom   43 type  1   force =    -0.00009380    0.00015454    0.00083203
     atom   44 type  2   force =     0.00016771   -0.00179979   -0.00267191
     atom   45 type  2   force =     0.00356911   -0.00102855    0.00125004
     atom   46 type  1   force =    -0.00046163   -0.00025659    0.00070460
     atom   47 type  2   force =     0.00063502    0.00037240   -0.00007921
     atom   48 type  2   force =    -0.00000101    0.00048448    0.00004697
     atom   49 type  1   force =     0.00040613    0.00024108    0.00014668
     atom   50 type  2   force =     0.00072964    0.00043514    0.00028083
     atom   51 type  2   force =    -0.00034507    0.00079445   -0.00023785
     atom   52 type  1   force =     0.00519909    0.00306122    0.00100143
     atom   53 type  2   force =     0.01031122    0.00540912    0.01491175
     atom   54 type  2   force =     0.00097296    0.00369029    0.00148395
     atom   55 type  1   force =    -0.00025913    0.00005740   -0.00009923
     atom   56 type  2   force =    -0.00028116    0.00019429   -0.00002671
     atom   57 type  2   force =    -0.00013143    0.00009826    0.00012429
     atom   58 type  1   force =    -0.00014826    0.00019371    0.00030202
     atom   59 type  2   force =    -0.00093789    0.00070476    0.00065468
     atom   60 type  2   force =    -0.00055434    0.00042161    0.00143406
     atom   61 type  1   force =     0.00003835   -0.00019529    0.00080595
     atom   62 type  2   force =    -0.00154182    0.00099716   -0.00253662
     atom   63 type  2   force =    -0.00223276    0.00149703    0.00021588
     atom   64 type  1   force =    -0.00004425   -0.00001781    0.00054338
     atom   65 type  2   force =    -0.00023877   -0.00013628    0.00057188
     atom   66 type  2   force =     0.00001851   -0.00016162    0.00012303
     atom   67 type  1   force =     0.00002326    0.00001223    0.00131703
     atom   68 type  2   force =     0.00052333    0.00029438    0.00151376
     atom   69 type  2   force =     0.00009798   -0.00068723    0.00143703
     atom   70 type  1   force =    -0.00047676   -0.00029346   -0.00015383
     atom   71 type  2   force =     0.00014699    0.00012725    0.00218076
     atom   72 type  2   force =     0.00026182   -0.00269969    0.00024392
     atom   73 type  1   force =     0.00009726   -0.00020045   -0.00007346
     atom   74 type  2   force =    -0.00039339   -0.00026402    0.00048181
     atom   75 type  2   force =    -0.00038604   -0.00026628    0.00007217
     atom   76 type  1   force =    -0.00005876   -0.00026316    0.00025949
     atom   77 type  2   force =    -0.00016561    0.00008099   -0.00095802
     atom   78 type  2   force =    -0.00026069   -0.00088299   -0.00058832
     atom   79 type  1   force =     0.00089317    0.00038563    0.00158378
     atom   80 type  2   force =    -0.00019163    0.00310510    0.00060492
     atom   81 type  2   force =    -0.00087029    0.00092534   -0.00199728
     atom   82 type  1   force =     0.00005535   -0.00032171   -0.00000920
     atom   83 type  2   force =    -0.00061631    0.00038287   -0.00009822
     atom   84 type  2   force =     0.00000422    0.00000795    0.00008348
     atom   85 type  1   force =     0.00002699    0.00017186    0.00026380
     atom   86 type  2   force =    -0.00032734    0.00044802   -0.00039630
     atom   87 type  2   force =     0.00032953    0.00021012    0.00145569
     atom   88 type  1   force =     0.00126387   -0.00084440   -0.00353979
     atom   89 type  2   force =     0.00348272   -0.00060800   -0.00564469
     atom   90 type  2   force =     0.00411155    0.00195633   -0.00381817
     atom   91 type  1   force =    -0.00026123    0.00021146   -0.00000115
     atom   92 type  2   force =     0.00001833   -0.00070658   -0.00010118
     atom   93 type  2   force =    -0.00042884   -0.00018604    0.00006759
     atom   94 type  1   force =     0.00015298   -0.00004769    0.00026514
     atom   95 type  2   force =     0.00019571   -0.00052162   -0.00039292
     atom   96 type  2   force =    -0.00092397    0.00020396   -0.00059152
     atom   97 type  1   force =    -0.00014761    0.00147881   -0.00348491
     atom   98 type  2   force =     0.00116305    0.00250163   -0.00421425
     atom   99 type  2   force =     0.00022404   -0.00113265   -0.00187944
     atom  100 type  1   force =    -0.00013279    0.00019522   -0.00007952
     atom  101 type  2   force =    -0.00042990   -0.00019338    0.00047258
     atom  102 type  2   force =    -0.00013941   -0.00007628   -0.00002235
     atom  103 type  1   force =    -0.00027539    0.00010504    0.00023736
     atom  104 type  2   force =    -0.00002153   -0.00015039   -0.00099324
     atom  105 type  2   force =     0.00095510    0.00056297   -0.00016300
     atom  106 type  1   force =     0.00073695    0.00050978    0.00169987
     atom  107 type  2   force =     0.00266353   -0.00180705    0.00058695
     atom  108 type  2   force =     0.00309844    0.00182864   -0.00074706
     atom  109 type  1   force =    -0.00005027   -0.00002869    0.00028491
     atom  110 type  2   force =     0.00010213    0.00006529   -0.00025735
     atom  111 type  2   force =    -0.00002824    0.00004974    0.00077459
     atom  112 type  1   force =    -0.00035087   -0.00018258   -0.00043651
     atom  113 type  2   force =     0.00038003    0.00024443   -0.00176543
     atom  114 type  2   force =    -0.00037837    0.00039077   -0.00118903
     atom  115 type  1   force =     0.00064018    0.00026921    0.00163825
     atom  116 type  2   force =    -0.00010667   -0.00003412    0.00079448
     atom  117 type  2   force =    -0.00342760    0.00213323    0.00208004
     atom  118 type  1   force =     0.00047242   -0.00022813    0.00067788
     atom  119 type  2   force =     0.00005995    0.00052488    0.00054589
     atom  120 type  2   force =     0.00004255    0.00049000    0.00004382
     atom  121 type  1   force =    -0.00015149    0.00017815   -0.00020731
     atom  122 type  2   force =    -0.00021384    0.00021878   -0.00071552
     atom  123 type  2   force =     0.00059280    0.00084273   -0.00082094
     atom  124 type  1   force =    -0.00131604    0.00020364   -0.00516363
     atom  125 type  2   force =    -0.00289226   -0.00119110    0.00135433
     atom  126 type  2   force =    -0.00020049   -0.00035610   -0.00045475
     atom  127 type  1   force =     0.00034964    0.00019718   -0.00007868
     atom  128 type  2   force =     0.00033047    0.00019733    0.00003337
     atom  129 type  2   force =     0.00043793   -0.00019528    0.00003765
     atom  130 type  1   force =    -0.00003601   -0.00001224   -0.00000851
     atom  131 type  2   force =     0.00094224    0.00054130    0.00071876
     atom  132 type  2   force =     0.00101431    0.00008865   -0.00083803
     atom  133 type  1   force =    -0.00001236   -0.00001703    0.00033001
     atom  134 type  2   force =     0.00282773    0.00166351   -0.00316116
     atom  135 type  2   force =    -0.00035247    0.00003793   -0.00035779
     atom  136 type  1   force =     0.00003041    0.00053839    0.00067636
     atom  137 type  2   force =     0.00047622   -0.00019751    0.00054366
     atom  138 type  2   force =     0.00002039   -0.00003546    0.00077244
     atom  139 type  1   force =     0.00007196   -0.00020476   -0.00020502
     atom  140 type  2   force =     0.00006322   -0.00025862   -0.00071957
     atom  141 type  2   force =     0.00013487   -0.00044684   -0.00120561
     atom  142 type  1   force =    -0.00047811   -0.00163770   -0.00491558
     atom  143 type  2   force =    -0.00254795   -0.00198798    0.00132508
     atom  144 type  2   force =     0.00014071   -0.00411754    0.00193450
     atom  145 type  3   force =    -0.04155936   -0.02235057   -0.02062241

     Total force =     0.060246     Total SCF correction =     0.001123


     Computing stress (Cartesian axis) and pressure


     negative rho (up, down):  6.812E-03 0.000E+00
          total   stress  (Ry/bohr**3)                   (kbar)     P=       -8.64
  -0.00008524  -0.00000553  -0.00000703          -12.54       -0.81       -1.03
  -0.00000553  -0.00007803  -0.00000412           -0.81      -11.48       -0.61
  -0.00000703  -0.00000412  -0.00001301           -1.03       -0.61       -1.91

     Energy error            =      4.8E-03 Ry
     Gradient error          =      4.2E-02 Ry/Bohr

     number of scf cycles    =  27
     number of bfgs steps    =  26

     energy             old  =  -15893.6964609619 Ry
     energy             new  =  -15893.7013077619 Ry

     CASE: energy            _new < energy            _old

     new trust radius        =       0.0921919319 bohr
     new conv_thr            =       0.0000000416 Ry


ATOMIC_POSITIONS (angstrom)
Zr               0.0014846557        0.0001367521       10.0881561669
B                1.5909695807        0.9201105037       11.7764163995
B                0.0020158973        1.8375185885       11.7753006901
Zr               0.0011311633        0.0025924224       13.5444677784
B                1.5960395746        0.9221628312       15.3225452034
B                0.0073747053        1.8408537940       15.3207691461
Zr              -0.0002642490        0.0083638766       17.1035964009
B                1.5829811589        0.9018708226       18.7686161441
B               -0.0137591445        1.8282335697       18.7562826265
Zr              -1.5895065653        2.7556424450       10.0880710999
B                0.0020107037        3.6721909213       11.7764904071
B               -1.5896507048        4.5906252364       11.7765003080
Zr              -1.5878500806        2.7543515519       13.5445785448
B                0.0064291364        3.6755288952       15.3229527764
B               -1.5888397067        4.5953664155       15.3196890733
Zr              -1.5840325447        2.7503837755       17.1047231198
B               -0.0178932098        3.6749032025       18.7696907585
B               -1.5881478251        4.5812846832       18.7607807603
Zr              -3.1828754400        5.5086471121       10.0917262491
B               -1.5896610298        6.4257684563       11.7787839058
B               -3.1811964949        7.3446821166       11.7771537772
Zr              -3.1831865196        5.5086993709       13.5491455867
B               -1.5899067507        6.4276434788       15.3212271997
B               -3.1832917077        7.3435126575       15.3211412553
Zr              -3.1834384041        5.5005635969       17.1321321736
B               -1.5921649997        6.4296751381       18.7512746988
B               -3.1817101275        7.3439633449       18.7805014181
Zr              -4.7721420671        8.2611994150       10.0917283128
B               -3.1811549699        9.1824521258       11.7786901220
B               -4.7703900760       10.1000242800       11.7765556362
Zr              -4.7720853035        8.2609679742       13.5490545776
B               -3.1797172860        9.1812261220       15.3212282598
B               -4.7658041827       10.0984915463       15.3195989396
Zr              -4.7790271565        8.2647590683       17.1335987420
B               -3.1779001321        9.1774100546       18.7527534756
B               -4.7785673375       10.1067260016       18.7599333346
Zr               3.1813519607        0.0020151283       10.0919283166
B                4.7708624288        0.9214783886       11.7807962440
B                3.1808138159        1.8388777964       11.7810949247
Zr               3.1819273829        0.0022575761       13.5490276593
B                4.7722212596        0.9277555358       15.3396969267
B                3.1843624798        1.8454310169       15.3377822226
Zr               3.1824889302        0.0031233537       17.1321294527
B                4.7675004991        0.9104994478       18.7866430591
B                3.1680198981        1.8163473690       18.7991655559
Zr               1.5935412633        2.7563818407       10.0907765849
B                3.1803353009        3.6724692617       11.7829160916
B                1.5926314852        4.5896538037       11.7810396105
Zr               1.5951817672        2.7573770781       13.5493447736
B                3.1807244763        3.6729549323       15.3437971730
B                1.6003824227        4.5896447147       15.3374727799
Zr               1.5754243655        2.7458825302       17.1387635778
B                3.1431929569        3.6502909040       18.8981021815
B                1.5674732460        4.5898384178       18.8025526417
Zr               0.0021551851        5.5085777539       10.0918953895
B                1.5931864292        6.4253796552       11.7808202098
B                0.0011551258        7.3446400096       11.7772631367
Zr               0.0026457319        5.5089039729       13.5490518981
B                1.5996009245        6.4235099681       15.3396966056
B                0.0017042203        7.3449876604       15.3212901433
Zr               0.0037339015        5.5079017720       17.1309424924
B                1.5790986579        6.4276002183       18.7866262388
B               -0.0063396506        7.3483488096       18.7801065597
Zr              -1.5906390120        8.2628795118       10.0934320075
B                0.0009976287        9.1819801810       11.7780563243
B               -1.5900511836       10.1006911201       11.7772310778
Zr              -1.5901001472        8.2632289038       13.5460729115
B               -0.0005870567        9.1809252805       15.3211286982
B               -1.5894817787       10.1005643777       15.3213288105
Zr              -1.5952400465        8.2592386597       17.1176453030
B               -0.0108790015        9.1748161833       18.7587042518
B               -1.5901947379       10.0904069942       18.7803622144
Zr               6.3605411868        0.0025548550       10.0919682421
B                7.9510578512        0.9194917089       11.7758403846
B                6.3608187465        1.8386487722       11.7812841893
Zr               6.3595466484        0.0022034901       13.5490601701
B                7.9471129269        0.9166563760       15.3167905237
B                6.3597114557        1.8429990486       15.3352827826
Zr               6.3625511480        0.0039863720       17.1395205257
B                7.9730300510        0.9019198880       18.7584647954
B                6.3957494213        1.8311378995       18.7742080732
Zr               4.7714322057        2.7555159621       10.0952872622
B                6.3611917632        3.6726009566       11.7825573021
B                4.7707977146        4.5907189280       11.7845315134
Zr               4.7710492664        2.7576866533       13.5593283239
B                6.3640307518        3.6727796714       15.3387079933
B                4.7731263294        4.5925626185       15.3568849279
Zr               4.7809613241        2.7615184966       17.1778100468
B                6.4872474515        3.6113719100       18.7784511440
B                4.8031461366        4.6136471769       18.9692360714
Zr               3.1817789986        5.5089778029       10.0952612610
B                4.7708754704        6.4270733364       11.7824422117
B                3.1824335129        7.3437874828       11.7812372718
Zr               3.1833433187        5.5075651722       13.5589759014
B                4.7721728263        6.4298629434       15.3377032295
B                3.1855152034        7.3408406597       15.3345366711
Zr               3.1919056880        5.5153341122       17.1818015513
B                4.7795348734        6.5736819779       18.7722573237
B                3.1971614667        7.3818043765       18.7725773407
Zr               1.5922658733        8.2615262125       10.0918980229
B                3.1814871255        9.1806800861       11.7757928503
B                1.5899743029       10.0993771274       11.7767927643
Zr               1.5913371205        8.2609398141       13.5490008612
B                3.1766259897        9.1793479670       15.3160302679
B                1.5855659185       10.0969972217       15.3193275797
Zr               1.5949808555        8.2629333411       17.1401098873
B                3.1782696981        9.2095983099       18.7580624232
B                1.6071439524       10.1096546369       18.7563693248
Zr               9.5401892075       -0.0006246582       10.0886380729
B               11.1325342169        0.9187632870       11.7734797920
B                9.5405163471        1.8371817939       11.7748727403
Zr               9.5425182917        0.0010556974       13.5438012665
B               11.1348924401        0.9207342177       15.3139514171
B                9.5403823080        1.8387532606       15.3146861307
Zr               9.5480703632        0.0047719321       17.0965187572
B               11.1316268252        0.9182979463       18.7530871398
B                9.5627613143        1.8238142480       18.7557980904
Zr               7.9480103778        2.7566417752       10.0906579986
B                9.5405039251        3.6723273145       11.7765144815
B                7.9492201475        4.5897088351       11.7809160540
Zr               7.9485359638        2.7567711584       13.5468723820
B                9.5402196154        3.6770296005       15.3197224417
B                7.9435236004        4.5895732259       15.3327641088
Zr               7.9925057296        2.7279827810       17.0952420258
B                9.5663577582        3.6652800020       18.7663423096
B                7.9758940771        4.5571130301       18.7905965765
Zr               6.3605277382        5.5086547925       10.0948359071
B                7.9485686256        6.4253937340       11.7812269093
B                6.3591482594        7.3438303372       11.7809184305
Zr               6.3591256475        5.5077706690       13.5568881648
B                7.9417633275        6.4217127244       15.3400484501
B                6.3562537255        7.3395208568       15.3323990017
Zr               6.3521157952        5.5050210858       17.2103824523
B                7.9717594429        6.4372266668       18.7823283073
B                6.3410873694        7.3872377021       18.7862830208
Zr               4.7710042792        8.2592677519       10.0906426634
B                6.3603615757        9.1807226314       11.7763881263
B                4.7709740349       10.0983703559       11.7748110349
Zr               4.7713392642        8.2600837448       13.5465325937
B                6.3647878774        9.1788957827       15.3185915675
B                4.7720341064       10.0987596156       15.3136644624
Zr               4.7686548317        8.3144265394       17.0895023349
B                6.3657019559        9.2079465576       18.7648465044
B                4.7706864227       10.1252910830       18.7549029870
O                4.4896238782        4.3890768822       20.2525117659



     Writing config-only to output data dir ./tmp/pwscf.save/ :
     XML data file
     NEW-OLD atomic charge density approx. for the potential

     negative rho (up, down):  6.807E-03 0.000E+00

     total cpu time spent up to now is     1158.5 secs

     per-process dynamical memory:   518.4 Mb

     Self-consistent Calculation

     iteration #  1     ecut=    50.00 Ry     beta= 0.70
     Davidson diagonalization with overlap
     ethr =  1.00E-06,  avg # of iterations =  5.8

     negative rho (up, down):  6.740E-03 0.000E+00

     total cpu time spent up to now is     1341.7 secs

     total energy              =  -15893.70790887 Ry
     estimated scf accuracy    <       0.00290463 Ry

     iteration #  2     ecut=    50.00 Ry     beta= 0.70
     Davidson diagonalization with overlap
     ethr =  3.34E-07,  avg # of iterations =  3.2

     negative rho (up, down):  6.701E-03 0.000E+00

     total cpu time spent up to now is     1449.4 secs

     total energy              =  -15893.70810349 Ry
     estimated scf accuracy    <       0.00109768 Ry

     iteration #  3     ecut=    50.00 Ry     beta= 0.70
     Davidson diagonalization with overlap
     ethr =  1.26E-07,  avg # of iterations =  3.0

     negative rho (up, down):  6.636E-03 0.000E+00

     total cpu time spent up to now is     1553.7 secs

     total energy              =  -15893.70819158 Ry
     estimated scf accuracy    <       0.00014704 Ry

     iteration #  4     ecut=    50.00 Ry     beta= 0.70
     Davidson diagonalization with overlap
     ethr =  1.69E-08,  avg # of iterations =  3.2

     negative rho (up, down):  6.603E-03 0.000E+00

     total cpu time spent up to now is     1664.9 secs

     total energy              =  -15893.70821131 Ry
     estimated scf accuracy    <       0.00000844 Ry

     iteration #  5     ecut=    50.00 Ry     beta= 0.70
     Davidson diagonalization with overlap
     ethr =  9.70E-10,  avg # of iterations =  5.0

     negative rho (up, down):  6.594E-03 0.000E+00

     total cpu time spent up to now is     1796.8 secs

     total energy              =  -15893.70821342 Ry
     estimated scf accuracy    <       0.00000209 Ry

     iteration #  6     ecut=    50.00 Ry     beta= 0.70
     Davidson diagonalization with overlap
     ethr =  2.40E-10,  avg # of iterations =  2.0

     negative rho (up, down):  6.591E-03 0.000E+00

     total cpu time spent up to now is     1899.3 secs

     total energy              =  -15893.70821349 Ry
     estimated scf accuracy    <       0.00000053 Ry

     iteration #  7     ecut=    50.00 Ry     beta= 0.70
     Davidson diagonalization with overlap
     ethr =  6.05E-11,  avg # of iterations =  4.8

     negative rho (up, down):  6.599E-03 0.000E+00

     total cpu time spent up to now is     2019.6 secs

     total energy              =  -15893.70821355 Ry
     estimated scf accuracy    <       0.00000017 Ry

     iteration #  8     ecut=    50.00 Ry     beta= 0.70
     Davidson diagonalization with overlap
     ethr =  1.99E-11,  avg # of iterations =  2.0

     negative rho (up, down):  6.633E-03 0.000E+00

     total cpu time spent up to now is     2119.4 secs

     total energy              =  -15893.70821347 Ry
     estimated scf accuracy    <       0.00000010 Ry

     iteration #  9     ecut=    50.00 Ry     beta= 0.70
     Davidson diagonalization with overlap
     ethr =  1.20E-11,  avg # of iterations =  4.2

     negative rho (up, down):  6.649E-03 0.000E+00

     total cpu time spent up to now is     2235.7 secs

     total energy              =  -15893.70821344 Ry
     estimated scf accuracy    <       0.00000006 Ry

     iteration # 10     ecut=    50.00 Ry     beta= 0.70
     Davidson diagonalization with overlap
     ethr =  6.86E-12,  avg # of iterations =  1.8

     negative rho (up, down):  6.806E-03 0.000E+00

     total cpu time spent up to now is     2329.2 secs

     End of self-consistent calculation

          k = 0.0000 0.0000 0.0000 (162831 PWs)   bands (ev):

   -46.4391 -46.3876 -46.3875 -46.3871 -46.3864 -46.3857 -46.3849 -46.3354
   -46.3347 -46.3346 -46.3337 -46.3334 -46.3325 -46.3323 -46.3321 -46.3308
   -46.0064 -45.9560 -45.9544 -45.9525 -45.9485 -45.9472 -45.9469 -45.9017
   -45.9008 -45.8968 -45.8960 -45.8947 -45.8930 -45.8911 -45.8896 -45.8880
   -45.8451 -45.8194 -45.7768 -45.7724 -45.7533 -45.7266 -45.7213 -45.7042
   -45.7026 -45.6890 -45.6824 -45.6584 -45.6551 -45.6467 -45.6331 -45.6276
   -24.8587 -24.8585 -24.8585 -24.7697 -24.7076 -24.7074 -24.7072 -24.7066
   -24.7061 -24.7056 -24.6894 -24.6892 -24.6885 -24.6883 -24.6876 -24.6866
   -24.5988 -24.5981 -24.5966 -24.5964 -24.5955 -24.5953 -24.5944 -24.5941
   -24.5929 -24.5430 -24.5419 -24.5415 -24.4512 -24.4506 -24.4500 -24.4497
   -24.4496 -24.4487 -24.3852 -24.3841 -24.3841 -24.3836 -24.3832 -24.3824
   -24.3802 -24.3799 -24.3796 -24.3762 -24.3759 -24.3748 -24.3683 -24.3649
   -24.3567 -24.3542 -24.2728 -24.2699 -24.2695 -24.2653 -24.2634 -24.2629
   -24.2157 -24.2149 -24.2145 -24.1956 -24.1952 -24.1932 -24.1848 -24.1839
   -24.1744 -24.1719 -24.1690 -24.1656 -24.1651 -24.1645 -24.1612 -24.1604
   -24.1591 -24.1576 -24.1489 -24.1222 -24.1213 -24.1208 -24.1200 -24.1195
   -24.1184 -24.1174 -24.1155 -24.1152 -24.1137 -24.1130 -24.1122 -24.0899
   -24.0615 -24.0559 -24.0483 -24.0386 -24.0374 -24.0366 -24.0353 -24.0343
   -24.0337 -24.0273 -24.0237 -24.0236 -24.0152 -23.9897 -23.9710 -23.9659
   -23.9477 -23.9447 -23.9319 -23.9268 -23.9256 -23.9249 -23.9167 -23.9152
   -23.9066 -23.9037 -23.9004 -23.8928 -23.8566 -23.8551 -23.8550 -23.8526
   -23.8474 -23.8467 -23.8357 -23.8223 -23.8058 -23.7581 -23.7572 -23.7570
   -23.7560 -23.7556 -23.7529 -23.6547 -23.6545 -23.6533 -23.6493 -23.6459
   -23.5696 -23.5616 -23.5550 -23.5377 -23.5297 -23.5186 -23.4355 -23.4324
   -16.7827  -9.6915  -8.8231  -8.6513  -8.6476  -8.6465  -8.6417  -8.6415
    -8.6405  -8.1107  -8.1063  -8.1027  -8.0981  -8.0975  -8.0943  -7.4681
    -7.0407  -7.0404  -7.0366  -7.0357  -7.0356  -7.0314  -7.0064  -7.0059
    -6.9963  -6.9180  -6.9170  -6.8470  -6.8418  -6.8343  -6.8320  -6.8291
    -6.8282  -6.8220  -6.8183  -6.7990  -6.6825  -6.3635  -6.3629  -6.3447
    -5.9586  -5.9578  -5.9568  -5.6320  -5.6025  -5.5116  -5.4438  -5.4382
    -5.3556  -5.1343  -5.1325  -5.1297  -5.0552  -5.0315  -4.9413  -4.6017
    -4.6016  -4.5988  -4.5983  -4.5966  -4.5960  -4.2450  -4.2423  -4.2374
    -4.2365  -4.2333  -4.2331  -3.8543  -3.8125  -3.7864  -3.6920  -3.1778
    -3.1201  -3.0692  -3.0600  -3.0488  -3.0140  -2.9118  -2.9115  -2.9103
    -2.9098  -2.9088  -2.9077  -2.7436  -2.7428  -2.7417  -2.7377  -2.7353
    -2.7346  -2.4715  -2.4687  -2.4671  -2.4613  -2.4590  -2.4584  -2.4563
    -2.4484  -2.4458  -2.4405  -2.4390  -2.4369  -2.2763  -2.2538  -2.2198
    -2.2071  -2.1912  -2.1876  -2.1873  -1.9681  -1.8564  -1.7839  -1.7236
    -1.7195  -1.7183  -1.3300  -1.3280  -1.3198  -1.3034  -1.3023  -1.2759
    -1.2274  -1.2224  -1.2193  -1.2120  -1.0828  -1.0345  -1.0147  -1.0142
    -1.0106  -0.9770  -0.9709  -0.9642  -0.9495  -0.9440  -0.8591  -0.8399
    -0.7931  -0.7929  -0.7915  -0.7900  -0.7893  -0.7867  -0.7833  -0.7830
    -0.7714  -0.6354  -0.6348  -0.6314  -0.6312  -0.6311  -0.6293  -0.5859
    -0.5115  -0.4798  -0.3066  -0.3023  -0.3005  -0.2990  -0.2914  -0.2899
    -0.2870  -0.2845  -0.2823  -0.2792  -0.1548  -0.1124  -0.0507   0.0037
     0.0420   0.0910   0.1002   0.1253   0.1293   0.1314   0.1318   0.1400
     0.1413   0.1429   0.1622   0.1649   0.1673   0.1703   0.1731   0.1772
     0.1806   0.1823   0.2092   0.2512   0.3041   0.3398   0.5564   0.6332
     0.8214   0.8242   0.8571   0.8670   0.8737   0.8818   0.8937   0.8978
     0.9073   0.9130   0.9200   0.9251   0.9301   0.9336   0.9340   0.9386
     0.9398   0.9453   1.1020   1.1038   1.1044   1.1085   1.1093   1.1103
     1.2825   1.3773   1.4719   1.7476   1.8202   1.8229   1.8536   1.8818
     1.8829   1.8831   1.8846   1.8852   1.8883   1.9205   2.0046   2.1263
     2.1348   2.1632   2.2080   2.2089   2.2089   2.2097   2.2099   2.2103
     2.3130   2.4168   2.4319   2.4588   2.4798   2.4853   2.4982   2.5068
     2.5156   2.5239   2.5258   2.5268   2.6403   2.7868   3.0479   3.2123
     3.2240   3.2241   3.2241   3.2781   3.2784   3.5079   3.5348   3.5644
     3.6447   3.7448   3.7630   3.7935   3.8005   3.8019   3.8025   3.8035
     3.8069   3.8093   3.8098   3.8152   3.8197   3.8375   3.8800   3.9205
     4.0853   4.2286   4.2370   4.2630   4.2666   4.2747   4.3730   4.6761
     4.6923   4.6968   4.6978   4.6996   4.7041   4.7046   4.7101   4.7176
     4.7279   4.7538   4.7559   4.8277   4.8311   4.8431   4.8487   4.8517
     4.8572   4.8640   4.8699   4.8969   4.9026   4.9105   4.9344   4.9348
     4.9355   4.9429   4.9447   4.9453   5.0456   5.1788   5.1824   5.2093
     5.2117   5.2142   5.2198   5.2238   5.2279   5.2299   5.2374   5.2417
     5.2592   5.4775

          k = 0.0000-0.5774 0.0000 (163042 PWs)   bands (ev):

   -46.4240 -46.4236 -46.3979 -46.3970 -46.3612 -46.3602 -46.3596 -46.3593
   -46.3495 -46.3485 -46.3341 -46.3332 -46.3330 -46.3327 -46.3227 -46.3215
   -45.9925 -45.9883 -45.9629 -45.9617 -45.9257 -45.9246 -45.9236 -45.9200
   -45.9119 -45.9100 -45.9002 -45.8934 -45.8930 -45.8920 -45.8822 -45.8816
   -45.8436 -45.8205 -45.7791 -45.7759 -45.7437 -45.7321 -45.7230 -45.7061
   -45.6963 -45.6899 -45.6768 -45.6658 -45.6553 -45.6470 -45.6320 -45.6271
   -24.7960 -24.7956 -24.7943 -24.7940 -24.7475 -24.7460 -24.7456 -24.7449
   -24.7099 -24.7091 -24.7050 -24.7042 -24.6601 -24.6594 -24.6589 -24.6585
   -24.6197 -24.6189 -24.5982 -24.5980 -24.5976 -24.5976 -24.5971 -24.5969
   -24.5966 -24.5962 -24.5805 -24.5796 -24.4848 -24.4833 -24.4774 -24.4751
   -24.4717 -24.4713 -24.4224 -24.4172 -24.3838 -24.3823 -24.3509 -24.3494
   -24.3409 -24.3357 -24.3179 -24.3090 -24.2884 -24.2876 -24.2875 -24.2866
   -24.2861 -24.2856 -24.2854 -24.2852 -24.2844 -24.2843 -24.2700 -24.2585
   -24.2528 -24.2191 -24.2173 -24.2169 -24.2161 -24.2159 -24.2157 -24.2149
   -24.2148 -24.2144 -24.1958 -24.1940 -24.1929 -24.1879 -24.1869 -24.1751
   -24.1692 -24.1689 -24.1617 -24.1615 -24.1534 -24.1506 -24.1461 -24.1435
   -24.1430 -24.1417 -24.1361 -24.1162 -24.1148 -24.1111 -24.1011 -24.0975
   -24.0882 -24.0821 -24.0789 -24.0546 -24.0524 -24.0519 -24.0265 -24.0127
   -24.0061 -24.0051 -24.0019 -23.9928 -23.9728 -23.9655 -23.9561 -23.9518
   -23.9415 -23.9369 -23.9342 -23.9314 -23.9310 -23.9308 -23.9264 -23.9206
   -23.8973 -23.8937 -23.8578 -23.8574 -23.8564 -23.8560 -23.8286 -23.8247
   -23.8241 -23.8016 -23.7934 -23.7923 -23.7605 -23.7549 -23.7519 -23.7509
   -23.7114 -23.7068 -23.6858 -23.6834 -23.6770 -23.6683 -23.6431 -23.6350
   -23.6226 -23.6072 -23.5968 -23.5674 -23.5415 -23.5099 -23.4870 -23.4505
   -16.7827  -9.4131  -9.4099  -8.8896  -8.8867  -8.6245  -8.6221  -8.2660
    -8.2600  -7.9594  -7.9574  -7.9549  -7.9540  -7.6489  -7.6456  -7.6420
    -7.6403  -7.5648  -7.5617  -7.3972  -7.3860  -7.3224  -7.2917  -7.0355
    -7.0145  -7.0094  -7.0083  -7.0074  -6.9448  -6.7085  -6.6993  -6.6978
    -6.6943  -6.4160  -6.3999  -6.3837  -6.3832  -6.3365  -6.2228  -6.0858
    -5.9965  -5.8262  -5.8238  -5.5887  -5.5213  -5.5164  -5.4819  -5.4815
    -5.4618  -5.2483  -5.2475  -5.0914  -5.0732  -5.0714  -5.0700  -4.6661
    -4.6411  -4.6294  -4.6186  -4.5489  -4.5043  -4.4654  -4.4623  -4.0392
    -4.0193  -3.9997  -3.9969  -3.6809  -3.6341  -3.5821  -3.5814  -3.5795
    -3.5788  -3.5040  -3.4766  -3.3464  -3.3445  -3.3125  -3.3096  -3.2497
    -3.2480  -3.2369  -3.2358  -2.9961  -2.9307  -2.7417  -2.7205  -2.6477
    -2.6458  -2.4267  -2.3253  -2.2457  -2.2138  -2.1414  -2.1408  -2.1362
    -2.1347  -2.0167  -1.9946  -1.9338  -1.9333  -1.8931  -1.8697  -1.8255
    -1.8189  -1.8062  -1.8053  -1.7916  -1.7772  -1.7334  -1.7001  -1.6979
    -1.6706  -1.6658  -1.6617  -1.6186  -1.6166  -1.5685  -1.5664  -1.5268
    -1.4797  -1.4745  -1.2525  -1.2463  -1.2102  -1.1863  -1.1844  -1.1720
    -1.0884  -1.0435  -0.9183  -0.9133  -0.9070  -0.8838  -0.8225  -0.8176
    -0.8152  -0.8127  -0.8071  -0.8064  -0.7967  -0.7958  -0.7891  -0.7817
    -0.7780  -0.7588  -0.7124  -0.7084  -0.6905  -0.6529  -0.4931  -0.4764
    -0.4443  -0.4355  -0.4296  -0.4200  -0.3747  -0.3445  -0.3017  -0.2779
    -0.2717  -0.2600  -0.2583  -0.2496  -0.1750  -0.1731  -0.1657  -0.1405
    -0.1388  -0.0443  -0.0159  -0.0126   0.0556   0.0597   0.0736   0.1331
     0.1354   0.1415   0.1498   0.1624   0.1969   0.2339   0.2376   0.3339
     0.3658   0.3768   0.3952   0.4018   0.4079   0.4116   0.4123   0.4264
     0.4321   0.5009   0.5291   0.6189   0.6236   0.6311   0.6373   0.7315
     0.7426   0.8309   0.8807   0.9578   0.9668   0.9970   1.1213   1.1506
     1.2010   1.2104   1.2114   1.2198   1.2212   1.2237   1.2342   1.2791
     1.3082   1.3842   1.4093   1.4644   1.6534   1.6808   1.7262   1.7851
     1.9282   1.9303   2.0359   2.0407   2.0672   2.0737   2.1311   2.1804
     2.1856   2.1890   2.2003   2.2145   2.2784   2.2861   2.3498   2.3532
     2.3705   2.3732   2.4366   2.4730   2.5127   2.5261   2.5703   2.5721
     2.5728   2.6094   2.6702   2.6708   2.6971   2.8462   2.8716   2.8737
     2.8748   2.8771   3.0667   3.1148   3.1482   3.1900   3.2251   3.5631
     3.6223   3.6313   3.6804   3.6876   3.6942   3.7030   3.7075   3.7094
     3.7883   3.7936   3.8282   3.8675   3.9242   3.9293   3.9566   3.9700
     3.9935   4.0154   4.0201   4.1627   4.2476   4.3268   4.3367   4.3704
     4.4296   4.4581   4.6899   4.6912   4.6934   4.7001   4.7265   4.7292
     4.7704   4.7921   4.8032   4.8093   4.8532   4.8936   4.9264   4.9302
     5.1014   5.1072   5.1291   5.1312   5.1568   5.1714   5.1781   5.1827
     5.1977   5.2125   5.2380   5.2492   5.2640   5.2659   5.2861   5.3076
     5.3166   5.4053   5.4284   5.4389   5.4460   5.4525   5.4768   5.5277
     5.5554   5.5873

          k = 0.5000-0.2887 0.0000 (163042 PWs)   bands (ev):

   -46.4240 -46.4237 -46.3979 -46.3970 -46.3614 -46.3599 -46.3597 -46.3593
   -46.3494 -46.3486 -46.3342 -46.3332 -46.3329 -46.3327 -46.3227 -46.3215
   -45.9925 -45.9883 -45.9629 -45.9617 -45.9257 -45.9247 -45.9235 -45.9199
   -45.9119 -45.9100 -45.9003 -45.8933 -45.8931 -45.8921 -45.8823 -45.8815
   -45.8436 -45.8205 -45.7799 -45.7750 -45.7439 -45.7322 -45.7222 -45.7071
   -45.6972 -45.6882 -45.6774 -45.6661 -45.6542 -45.6478 -45.6318 -45.6271
   -24.7960 -24.7955 -24.7943 -24.7940 -24.7475 -24.7459 -24.7456 -24.7450
   -24.7099 -24.7091 -24.7050 -24.7042 -24.6602 -24.6593 -24.6589 -24.6585
   -24.6197 -24.6190 -24.5983 -24.5980 -24.5977 -24.5976 -24.5971 -24.5968
   -24.5966 -24.5961 -24.5806 -24.5796 -24.4848 -24.4833 -24.4774 -24.4749
   -24.4718 -24.4715 -24.4224 -24.4173 -24.3838 -24.3821 -24.3509 -24.3495
   -24.3408 -24.3358 -24.3178 -24.3076 -24.2883 -24.2876 -24.2876 -24.2865
   -24.2862 -24.2857 -24.2855 -24.2852 -24.2844 -24.2842 -24.2702 -24.2600
   -24.2535 -24.2194 -24.2174 -24.2174 -24.2164 -24.2160 -24.2157 -24.2150
   -24.2148 -24.2144 -24.1956 -24.1932 -24.1929 -24.1879 -24.1869 -24.1749
   -24.1692 -24.1685 -24.1618 -24.1617 -24.1533 -24.1506 -24.1460 -24.1435
   -24.1430 -24.1417 -24.1360 -24.1162 -24.1149 -24.1112 -24.1003 -24.0965
   -24.0883 -24.0832 -24.0787 -24.0544 -24.0524 -24.0519 -24.0263 -24.0130
   -24.0060 -24.0051 -24.0013 -23.9943 -23.9711 -23.9658 -23.9555 -23.9513
   -23.9422 -23.9382 -23.9343 -23.9314 -23.9310 -23.9307 -23.9246 -23.9224
   -23.8967 -23.8942 -23.8579 -23.8575 -23.8563 -23.8559 -23.8286 -23.8244
   -23.8235 -23.8028 -23.7935 -23.7922 -23.7602 -23.7544 -23.7519 -23.7508
   -23.7127 -23.7064 -23.6857 -23.6834 -23.6769 -23.6681 -23.6432 -23.6345
   -23.6233 -23.6080 -23.5959 -23.5681 -23.5403 -23.5107 -23.4859 -23.4511
   -16.7827  -9.4130  -9.4100  -8.8894  -8.8868  -8.6244  -8.6222  -8.2659
    -8.2602  -7.9592  -7.9577  -7.9550  -7.9539  -7.6483  -7.6461  -7.6422
    -7.6401  -7.5648  -7.5617  -7.3971  -7.3862  -7.3222  -7.2922  -7.0350
    -7.0146  -7.0095  -7.0081  -7.0074  -6.9437  -6.7084  -6.6994  -6.6979
    -6.6942  -6.4169  -6.4000  -6.3835  -6.3832  -6.3367  -6.2236  -6.0903
    -5.9932  -5.8262  -5.8237  -5.5858  -5.5210  -5.5157  -5.4819  -5.4814
    -5.4627  -5.2482  -5.2476  -5.0907  -5.0735  -5.0714  -5.0699  -4.6650
    -4.6418  -4.6296  -4.6187  -4.5512  -4.5051  -4.4653  -4.4623  -4.0421
    -4.0170  -3.9989  -3.9971  -3.6810  -3.6320  -3.5821  -3.5814  -3.5795
    -3.5788  -3.5064  -3.4748  -3.3471  -3.3442  -3.3125  -3.3095  -3.2499
    -3.2476  -3.2371  -3.2357  -2.9990  -2.9311  -2.7393  -2.7210  -2.6478
    -2.6458  -2.4189  -2.3291  -2.2473  -2.2143  -2.1414  -2.1408  -2.1363
    -2.1348  -2.0162  -1.9946  -1.9338  -1.9333  -1.8931  -1.8697  -1.8280
    -1.8191  -1.8059  -1.8053  -1.7924  -1.7769  -1.7330  -1.7007  -1.6968
    -1.6710  -1.6655  -1.6617  -1.6187  -1.6164  -1.5684  -1.5659  -1.5242
    -1.4796  -1.4745  -1.2527  -1.2465  -1.2104  -1.1868  -1.1846  -1.1735
    -1.0895  -1.0408  -0.9183  -0.9126  -0.9068  -0.8842  -0.8226  -0.8173
    -0.8151  -0.8127  -0.8071  -0.8067  -0.7968  -0.7958  -0.7892  -0.7814
    -0.7782  -0.7592  -0.7130  -0.7087  -0.6888  -0.6540  -0.4933  -0.4771
    -0.4449  -0.4354  -0.4297  -0.4204  -0.3747  -0.3447  -0.3024  -0.2773
    -0.2714  -0.2602  -0.2581  -0.2496  -0.1753  -0.1728  -0.1668  -0.1415
[...]
     atom   36 type  2   force =    -0.00011520    0.00041940   -0.00056067
     atom   37 type  1   force =     0.00007686    0.00010517   -0.00003931
     atom   38 type  2   force =     0.00018180    0.00004344    0.00010093
     atom   39 type  2   force =     0.00014997    0.00016473   -0.00002499
     atom   40 type  1   force =     0.00038744   -0.00012702   -0.00035450
     atom   41 type  2   force =    -0.00038535    0.00007667    0.00023617
     atom   42 type  2   force =     0.00027187    0.00027633    0.00030004
     atom   43 type  1   force =     0.00018351   -0.00168657   -0.00106505
     atom   44 type  2   force =     0.00137729   -0.00111432    0.00012606
     atom   45 type  2   force =    -0.00059344   -0.00057709    0.00022496
     atom   46 type  1   force =     0.00002901    0.00001035    0.00050642
     atom   47 type  2   force =    -0.00017010   -0.00010113   -0.00004425
     atom   48 type  2   force =     0.00022429    0.00003884   -0.00001757
     atom   49 type  1   force =     0.00052458    0.00030192   -0.00022568
     atom   50 type  2   force =    -0.00019944   -0.00011250    0.00049014
     atom   51 type  2   force =     0.00035398    0.00007271    0.00029577
     atom   52 type  1   force =     0.00044692    0.00023710    0.00030334
     atom   53 type  2   force =    -0.00121155   -0.00054135    0.00137302
     atom   54 type  2   force =    -0.00091258   -0.00019853   -0.00002933
     atom   55 type  1   force =     0.00013410    0.00001060   -0.00003689
     atom   56 type  2   force =     0.00013300    0.00012619    0.00010962
     atom   57 type  2   force =     0.00008977    0.00018286   -0.00014080
     atom   58 type  1   force =     0.00007359    0.00039534   -0.00035345
     atom   59 type  2   force =    -0.00015583   -0.00036494    0.00021079
     atom   60 type  2   force =     0.00057602   -0.00029724    0.00020844
     atom   61 type  1   force =    -0.00129271    0.00106121   -0.00101266
     atom   62 type  2   force =    -0.00015506    0.00175464    0.00005254
     atom   63 type  2   force =    -0.00002963    0.00001784   -0.00075788
     atom   64 type  1   force =     0.00018327    0.00009815    0.00003787
     atom   65 type  2   force =     0.00027223    0.00014854   -0.00023789
     atom   66 type  2   force =     0.00020721   -0.00002116   -0.00014166
     atom   67 type  1   force =     0.00017647    0.00009395    0.00004149
     atom   68 type  2   force =    -0.00005625   -0.00002568   -0.00014186
     atom   69 type  2   force =     0.00002799    0.00067062    0.00021483
     atom   70 type  1   force =     0.00013778    0.00013651   -0.00158557
     atom   71 type  2   force =    -0.00064210   -0.00038467   -0.00067855
     atom   72 type  2   force =    -0.00010208    0.00002850   -0.00070401
     atom   73 type  1   force =     0.00030738    0.00012588   -0.00001127
     atom   74 type  2   force =     0.00014312    0.00030130   -0.00001395
     atom   75 type  2   force =     0.00018079    0.00023340    0.00002663
     atom   76 type  1   force =    -0.00046255   -0.00004703   -0.00012554
     atom   77 type  2   force =     0.00023788    0.00025439   -0.00028238
     atom   78 type  2   force =    -0.00058630    0.00008725    0.00032379
     atom   79 type  1   force =    -0.00048083   -0.00079979   -0.00070670
     atom   80 type  2   force =     0.00019234   -0.00029067   -0.00015128
     atom   81 type  2   force =    -0.00034817    0.00093706    0.00022134
     atom   82 type  1   force =     0.00013053    0.00016826    0.00002687
     atom   83 type  2   force =     0.00039495   -0.00007399    0.00002181
     atom   84 type  2   force =     0.00016864    0.00009122    0.00034909
     atom   85 type  1   force =    -0.00006505   -0.00015682    0.00002779
     atom   86 type  2   force =    -0.00022050    0.00004153    0.00066193
     atom   87 type  2   force =    -0.00032310   -0.00022240    0.00028392
     atom   88 type  1   force =     0.00022539   -0.00184426    0.00003554
     atom   89 type  2   force =    -0.00129022    0.00053210    0.00171515
     atom   90 type  2   force =     0.00052156    0.00048638    0.00080080
     atom   91 type  1   force =     0.00021993    0.00001555    0.00003192
     atom   92 type  2   force =     0.00013822    0.00036109    0.00003227
     atom   93 type  2   force =     0.00029292    0.00002745    0.00003589
     atom   94 type  1   force =    -0.00015764    0.00000498    0.00005001
     atom   95 type  2   force =    -0.00007018   -0.00019245    0.00070292
     atom   96 type  2   force =    -0.00017793   -0.00056830    0.00033261
     atom   97 type  1   force =    -0.00140778    0.00108512   -0.00014294
     atom   98 type  2   force =    -0.00019500   -0.00148914    0.00148932
     atom   99 type  2   force =     0.00044475   -0.00090146    0.00020945
     atom  100 type  1   force =     0.00026750    0.00019227   -0.00000441
     atom  101 type  2   force =     0.00033749   -0.00003266   -0.00000461
     atom  102 type  2   force =     0.00006286    0.00002895    0.00007709
     atom  103 type  1   force =    -0.00027866   -0.00037105   -0.00010841
     atom  104 type  2   force =     0.00036441    0.00004192   -0.00025802
     atom  105 type  2   force =    -0.00026590   -0.00016583   -0.00044430
     atom  106 type  1   force =    -0.00095183    0.00000547   -0.00080623
     atom  107 type  2   force =    -0.00026906    0.00027311   -0.00015318
     atom  108 type  2   force =     0.00011653   -0.00001128   -0.00007859
     atom  109 type  1   force =     0.00031119    0.00016958    0.00006811
     atom  110 type  2   force =     0.00008451    0.00004235    0.00016642
     atom  111 type  2   force =    -0.00001785    0.00016435    0.00004282
     atom  112 type  1   force =     0.00000885   -0.00003476   -0.00041561
     atom  113 type  2   force =     0.00042629    0.00019101   -0.00096278
     atom  114 type  2   force =    -0.00029099    0.00024926   -0.00072912
     atom  115 type  1   force =     0.00065361    0.00045758    0.00021718
     atom  116 type  2   force =    -0.00018236   -0.00012018   -0.00028071
     atom  117 type  2   force =    -0.00034605   -0.00013576    0.00015371
     atom  118 type  1   force =     0.00021531    0.00006983    0.00048153
     atom  119 type  2   force =    -0.00009082   -0.00002769   -0.00000547
     atom  120 type  2   force =    -0.00003977    0.00002024    0.00006719
     atom  121 type  1   force =    -0.00044880    0.00040307    0.00027902
     atom  122 type  2   force =    -0.00008550   -0.00030506   -0.00031149
     atom  123 type  2   force =    -0.00022961    0.00013431    0.00049989
     atom  124 type  1   force =    -0.00088930    0.00081583    0.00083357
     atom  125 type  2   force =     0.00120254   -0.00047942    0.00008063
     atom  126 type  2   force =    -0.00093580    0.00028099    0.00008166
     atom  127 type  1   force =     0.00005926    0.00002665   -0.00003083
     atom  128 type  2   force =     0.00012045    0.00006228    0.00010582
     atom  129 type  2   force =     0.00000499   -0.00005467    0.00006849
     atom  130 type  1   force =     0.00012678    0.00006667   -0.00000015
     atom  131 type  2   force =     0.00018024    0.00008929    0.00037452
     atom  132 type  2   force =    -0.00001959   -0.00028936    0.00050583
     atom  133 type  1   force =     0.00131773    0.00064757    0.00145811
     atom  134 type  2   force =     0.00036264    0.00022234    0.00029075
     atom  135 type  2   force =     0.00003661   -0.00095608    0.00014308
     atom  136 type  1   force =     0.00017339    0.00013927    0.00048186
     atom  137 type  2   force =    -0.00006550   -0.00007294    0.00000099
     atom  138 type  2   force =     0.00013652   -0.00010768    0.00005064
     atom  139 type  1   force =     0.00014022   -0.00062192    0.00028846
     atom  140 type  2   force =    -0.00029987    0.00002509   -0.00027227
     atom  141 type  2   force =     0.00010078   -0.00046310   -0.00067786
     atom  142 type  1   force =     0.00024465   -0.00102960    0.00077743
     atom  143 type  2   force =     0.00028986    0.00119396    0.00006430
     atom  144 type  2   force =    -0.00028513   -0.00027862    0.00019466
     atom  145 type  3   force =    -0.00131168   -0.00006715    0.00126741

     Total force =     0.009968     Total SCF correction =     0.000108


     Computing stress (Cartesian axis) and pressure


     negative rho (up, down):  6.854E-03 0.000E+00
          total   stress  (Ry/bohr**3)                   (kbar)     P=       -7.72
  -0.00007838  -0.00000403  -0.00000357          -11.53       -0.59       -0.53
  -0.00000403  -0.00007374  -0.00000172           -0.59      -10.85       -0.25
  -0.00000357  -0.00000172  -0.00000532           -0.53       -0.25       -0.78

     Energy error            =      2.2E-04 Ry
     Gradient error          =      2.0E-03 Ry/Bohr

     number of scf cycles    =  42
     number of bfgs steps    =  41

     energy             old  =  -15893.7938657716 Ry
     energy             new  =  -15893.7940828216 Ry

     CASE: energy            _new < energy            _old

     new trust radius        =       0.0103948209 bohr
     new conv_thr            =       0.0000000020 Ry


ATOMIC_POSITIONS (angstrom)
Zr               0.0042854598        0.0034355349       10.0941106070
B                1.5941801655        0.9212954844       11.7826881378
B                0.0045405815        1.8391022340       11.7833919579
Zr               0.0067863549        0.0076270624       13.5517749831
B                1.5973623979        0.9288827302       15.3332300630
B                0.0171371286        1.8462063627       15.3452689973
Zr               0.0195198739        0.0023872233       17.1462505575
B                1.6283060200        0.8844444620       18.7955466447
B               -0.0065791343        1.8322065263       18.7686193054
Zr              -1.5853410891        2.7567377386       10.0940794637
B                0.0045284050        3.6746595275       11.7826818755
B               -1.5867228943        4.5912593127       11.7822813181
Zr              -1.5804096016        2.7567091299       13.5517514405
B                0.0129360900        3.6734021102       15.3332987557
B               -1.5844173774        4.5926305461       15.3257343824
Zr              -1.5780464626        2.7701162433       17.1463932612
B               -0.0098550092        3.7221877695       18.7962899440
B               -1.5762174433        4.6090117789       18.7794958966
Zr              -3.1783197642        5.5102026967       10.0948640066
B               -1.5873727180        6.4280056371       11.7835800557
B               -3.1791617766        7.3459934417       11.7810755488
Zr              -3.1809254604        5.5102882676       13.5508168998
B               -1.5891290877        6.4304568571       15.3232829322
B               -3.1823899092        7.3439850534       15.3267393042
Zr              -3.1792444641        5.5023158838       17.1389551297
B               -1.5858191669        6.4258593057       18.7742748338
B               -3.1817188358        7.3440151879       18.7750495445
Zr              -4.7685909363        8.2646578526       10.0948188279
B               -3.1782620709        9.1834905620       11.7835714784
B               -4.7686350262       10.1024596205       11.7822711424
Zr              -4.7697461228        8.2622393317       13.5507623449
B               -3.1769186476        9.1804068442       15.3232430811
B               -4.7661494955       10.1034917866       15.3256786652
Zr              -4.7759255733        8.2670464027       17.1394062832
B               -3.1789764152        9.1853352199       18.7739223765
B               -4.7476953230       10.1021746734       18.7791914875
Zr               3.1820680400        0.0018562383       10.0961936363
B                4.7736968289        0.9203877606       11.7821536225
B                3.1836895490        1.8390619130       11.7822651771
Zr               3.1840464931        0.0028764978       13.5520277891
B                4.7772987881        0.9219435605       15.3287115987
B                3.1830507776        1.8423903917       15.3306571957
Zr               3.1971594456       -0.0172473057       17.0875666513
B                4.7566728504        0.9147694989       18.7549198169
B                3.1913357206        1.7479908667       18.7611397921
Zr               1.5931090404        2.7562688213       10.0950640253
B                3.1841506971        3.6748515475       11.7823046309
B                1.5940981411        4.5923261280       11.7822581037
Zr               1.5952374980        2.7574246850       13.5533398076
B                3.1844398048        3.6749274168       15.3370925152
B                1.5969820562        4.5899692020       15.3309211836
Zr               1.6238507281        2.7737606234       17.2298929105
B                3.1639269027        3.6612542996       18.9364182107
B                1.5194405785        4.6436085184       18.7628104478
Zr               0.0022234541        5.5095316954       10.0961992705
B                1.5935071526        6.4286421805       11.7821480517
B                0.0031201338        7.3464856431       11.7810747148
Zr               0.0042791045        5.5106090304       13.5521465750
B                1.5970083412        6.4306587319       15.3292114209
B                0.0028444535        7.3537202702       15.3215613830
Zr              -0.0065323511        5.5313771992       17.0875421266
B                1.5798003732        6.4158151072       18.7563611201
B               -0.0092435957        7.3493843258       18.7694653509
Zr              -1.5889325918        8.2641106352       10.0966855743
B                0.0031694428        9.1832812284       11.7822459711
B               -1.5875856173       10.1016424741       11.7810730316
Zr              -1.5879266630        8.2645446450       13.5497155081
B                0.0068382375        9.1850630426       15.3279456813
B               -1.5813284773       10.0972628853       15.3212946687
Zr              -1.5973173878        8.2587457246       17.1275593983
B               -0.0109166300        9.1753565332       18.7702418184
B               -1.5902556914       10.0888898121       18.7687303556
Zr               6.3634506517        0.0006981902       10.0954472570
B                7.9548180791        0.9196894968       11.7794416852
B                6.3640561999        1.8380905003       11.7811859445
Zr               6.3660743722        0.0016707751       13.5485610283
B                7.9586710732        0.9150165145       15.3196517256
B                6.3667820406        1.8390187819       15.3271774121
Zr               6.3643707036        0.0084895141       17.1554992621
B                7.9767802700        0.9205703273       18.7656409777
B                6.3895830258        1.8515759120       18.7503510586
Zr               4.7731498030        2.7562191036       10.0954112175
B                6.3634092098        3.6745632482       11.7806760902
B                4.7736438170        4.5925652441       11.7813960402
Zr               4.7744992214        2.7585907430       13.5544899984
B                6.3664231007        3.6799922861       15.3274835259
B                4.7797445141        4.5960302846       15.3364753040
Zr               4.7871500247        2.7472004112       17.1279491111
B                6.4551606380        3.6289441057       18.7529514571
B                4.8123965325        4.6128875308       18.9358717229
Zr               3.1830707370        5.5103193710       10.0953938463
B                4.7735170764        6.4283361229       11.7806609602
B                3.1834409817        7.3471062604       11.7811733085
Zr               3.1858589656        5.5101999693       13.5545570344
B                4.7796596521        6.4279025819       15.3276344509
B                3.1856351973        7.3486272272       15.3275744294
Zr               3.1826438901        5.5262357366       17.1299902348
B                4.7803829847        6.5302333146       18.7547193384
B                3.2089804522        7.3623063389       18.7516472905
Zr               1.5918919207        8.2652701961       10.0953882212
B                3.1834473146        9.1839251055       11.7794299786
B                1.5934624216       10.1014533599       11.7810770494
Zr               1.5941781325        8.2668394570       13.5485953432
B                3.1814132402        9.1892355269       15.3198376498
B                1.5932390558       10.1010541687       15.3275478162
Zr               1.5994418429        8.2616646971       17.1572483811
B                3.1961069261        9.2022049132       18.7661181918
B                1.6189210880       10.1164043389       18.7666632568
Zr               9.5453799504        0.0024945484       10.0949108248
B               11.1364542040        0.9211027385       11.7801374684
B                9.5457265950        1.8380752255       11.7815700788
Zr               9.5479896771        0.0039290398       13.5496834946
B               11.1455907693        0.9263389066       15.3308357426
B                9.5535524061        1.8387807809       15.3229406392
Zr               9.5587836097        0.0097685866       17.1156185310
B               11.1409966741        0.9234599569       18.7751884103
B                9.5490837695        1.8387724963       18.7704721815
Zr               7.9548641472        2.7569008966       10.0937199268
B                9.5453641294        3.6742835303       11.7812396232
B                7.9534452234        4.5918511748       11.7810864508
Zr               7.9573622744        2.7563206212       13.5498142414
B                9.5484849649        3.6774540221       15.3242170257
B                7.9507405055        4.5960378077       15.3282254299
Zr               7.9732128918        2.7373119108       17.0830574841
B                9.5397219074        3.6638586220       18.7751018549
B                7.9821684051        4.5492751707       18.7892537759
Zr               6.3644952517        5.5110476141       10.0955284322
B                7.9529958478        6.4281437756       11.7827703503
B                6.3629269387        7.3466928323       11.7810709658
Zr               6.3639817128        5.5106875197       13.5505966655
B                7.9453240469        6.4235563017       15.3392571299
B                6.3653041901        7.3420300968       15.3282317260
Zr               6.3446868407        5.4994710702       17.2204983560
B                7.9724614476        6.4388529422       18.7633362467
B                6.3400629484        7.3923325343       18.7897758110
Zr               4.7745177930        8.2654038849       10.0937044232
B                6.3642525419        9.1841007554       11.7812227860
B                4.7742389436       10.1025211200       11.7815568208
Zr               4.7752652811        8.2677088036       13.5498943852
B                6.3686458148        9.1850206031       15.3242171817
B                4.7788039538       10.1087484361       15.3229151447
Zr               4.7670380419        8.2905230219       17.0827900640
B                6.3523370262        9.1839888777       18.7752637331
B                4.7767689995       10.1045512120       18.7706734998
O                3.9922257471        4.1369632754       20.0054714222



     Writing config-only to output data dir ./tmp/pwscf.save/ :
     XML data file
     NEW-OLD atomic charge density approx. for the potential

     negative rho (up, down):  6.855E-03 0.000E+00

     total cpu time spent up to now is    21499.4 secs

     per-process dynamical memory:   518.4 Mb

     Self-consistent Calculation

     iteration #  1     ecut=    50.00 Ry     beta= 0.70
     Davidson diagonalization with overlap
