
     Program PWSCF v.7.4 starts on 18Nov2025 at  7:23:12 

     This program is part of the open-source Quantum ESPRESSO suite
     for quantum simulation of materials; please cite
         "P. Giannozzi et al., J. Phys.:Condens. Matter 21 395502 (2009);
         "P. Giannozzi et al., J. Phys.:Condens. Matter 29 465901 (2017);
         "P. Giannozzi et al., J. Chem. Phys. 152 154105 (2020);
          URL http://www.quantum-espresso.org", 
     in publications or presentations arising from this work. More details at
     http://www.quantum-espresso.org/quote

     Parallel version (MPI & OpenMP), running on      64 processor cores
     Number of MPI processes:                64
     Threads/MPI process:                     1

     MPI processes distributed on     1 nodes
     83425 MiB available memory on the printing compute node when the environment starts

     Reading input from zrb2-o-T-relax.in
Warning: card &CELL ignored
Warning: card / ignored
Warning: card &FCP ignored
Warning: card / ignored
Warning: card &RISM ignored
Warning: card / ignored

     Current dimensions of program PWSCF are:
     Max number of different atomic species (ntypx) = 10
     Max number of k-points (npk) =  40000
     Max angular momentum in pseudopotentials (lmaxx) =  4
     file Zr.pbe-spn-kjpaw_psl.1.0.0.UPF: wavefunction(s)  4S 4P renormalized
     file O.pbe-n-kjpaw_psl.0.1.UPF: wavefunction(s)  2P renormalized

     K-points division:     npool     =       2
     R & G space division:  proc/nbgrp/npool/nimage =      32
     Subspace diagonalization in iterative solution of the eigenvalue problem:
     one sub-group per band group will be used
     ELPA distributed-memory algorithm (size of sub-group:  5*  5 procs)


     Parallelization info
     --------------------
     sticks:   dense  smooth     PW     G-vecs:    dense   smooth      PW
     Min         498     248     64               115266    40745    5420
     Max         499     250     65               115281    40755    5437
     Sum       15937    7963   2077              3688607  1303991  173729

     Using Slab Decomposition



     bravais-lattice index     =            0
     lattice parameter (alat)  =      24.0410  a.u.
     unit-cell volume          =   27301.5549 (a.u.)^3
     number of atoms/cell      =          145
     number of atomic types    =            3
     number of electrons       =       870.00
     number of Kohn-Sham states=          522
     kinetic-energy cutoff     =      50.0000  Ry
     charge density cutoff     =     400.0000  Ry
     scf convergence threshold =      1.0E-07
     mixing beta               =       0.7000
     number of iterations used =            8  local-TF  mixing
     energy convergence thresh.=      1.0E-04
     force convergence thresh. =      1.0E-03
     Exchange-correlation= SLA  PW   PBX  PBC
                           (   1   4   3   4   0   0   0)
     nstep                     =           50


     celldm(1)=  24.041023  celldm(2)=   0.000000  celldm(3)=   0.000000
     celldm(4)=   0.000000  celldm(5)=   0.000000  celldm(6)=   0.000000

     crystal axes: (cart. coord. in units of alat)
               a(1) = (   1.000000   0.000000   0.000000 )  
               a(2) = (  -0.500000   0.866025   0.000000 )  
               a(3) = (   0.000000   0.000000   2.268810 )  

     reciprocal axes: (cart. coord. in units 2 pi/alat)
               b(1) = (  1.000000  0.577351 -0.000000 )  
               b(2) = (  0.000000  1.154701  0.000000 )  
               b(3) = (  0.000000 -0.000000  0.440760 )  


     PseudoPot. # 1 for Zr read from file:
     /home/cganley2/qe-data/pseudopotentials/SSSP_1.3.0_PBE_precision/Zr.pbe-spn-kjpaw_psl.1.0.0.UPF
     MD5 check sum: 83bf7718257ce689f169bc8534fef73a
     Pseudo is Projector augmented-wave + core cor, Zval = 12.0
     Generated using &quot;atomic&quot; code by A. Dal Corso  v.6.2.2
     Shape of augmentation charge: PSQ
     Using radial grid of 1225 points,  6 beta functions with: 
                l(1) =   0
                l(2) =   0
                l(3) =   1
                l(4) =   1
                l(5) =   2
                l(6) =   2
     Q(r) pseudized with 0 coefficients 


     PseudoPot. # 2 for B  read from file:
     /home/cganley2/qe-data/pseudopotentials/SSSP_1.3.0_PBE_precision/B.pbe-n-kjpaw_psl.1.0.0.UPF
     MD5 check sum: 757e44352cacacece234d5873ff275d1
     Pseudo is Projector augmented-wave + core cor, Zval =  3.0
     Generated using &quot;atomic&quot; code by A. Dal Corso  v.6.3
     Shape of augmentation charge: PSQ
     Using radial grid of 1059 points,  4 beta functions with: 
                l(1) =   0
                l(2) =   0
                l(3) =   1
                l(4) =   1
     Q(r) pseudized with 0 coefficients 


     PseudoPot. # 3 for O  read from file:
     /home/cganley2/qe-data/pseudopotentials/SSSP_1.3.0_PBE_precision/O.pbe-n-kjpaw_psl.0.1.UPF
     MD5 check sum: 0234752ac141de4415c5fc33072bef88
     Pseudo is Projector augmented-wave + core cor, Zval =  6.0
     Generated using "atomic" code by A. Dal Corso  v.5.0.99 svn rev. 10869
     Shape of augmentation charge: BESSEL
     Using radial grid of 1095 points,  4 beta functions with: 
                l(1) =   0
                l(2) =   0
                l(3) =   1
                l(4) =   1
     Q(r) pseudized with 0 coefficients 


     atomic species   valence    mass     pseudopotential
     Zr               12.00    91.22400     Zr( 1.00)
     B                 3.00    10.81000     B ( 1.00)
     O                 6.00    15.99900     O ( 1.00)

     No symmetry found



   Cartesian axes

     site n.     atom                  positions (alat units)
         1        Zr     tau(   1) = (   0.0000000   0.0000000   0.7935304  )
         2        B      tau(   2) = (   0.1250001   0.0721688   0.9260528  )
         3        B      tau(   3) = (  -0.0000000   0.1443377   0.9260528  )
         4        Zr     tau(   4) = (   0.0000000   0.0000000   1.0651436  )
         5        B      tau(   5) = (   0.1250001   0.0721689   1.2047800  )
         6        B      tau(   6) = (  -0.0000000   0.1443377   1.2047800  )
         7        Zr     tau(   7) = (   0.0000000   0.0000000   1.3467056  )
         8        B      tau(   8) = (   0.1250000   0.0721688   1.4758076  )
         9        B      tau(   9) = (  -0.0000000   0.1443375   1.4758076  )
        10        Zr     tau(  10) = (  -0.1249999   0.2165062   0.7935305  )
        11        B      tau(  11) = (   0.0000000   0.2886753   0.9260529  )
        12        B      tau(  12) = (  -0.1250000   0.3608440   0.9260530  )
        13        Zr     tau(  13) = (  -0.1250001   0.2165065   1.0651438  )
        14        B      tau(  14) = (   0.0000000   0.2886753   1.2047800  )
        15        B      tau(  15) = (  -0.1250001   0.3608440   1.2047801  )
        16        Zr     tau(  16) = (  -0.1250000   0.2165063   1.3467057  )
        17        B      tau(  17) = (   0.0000000   0.2886750   1.4758076  )
        18        B      tau(  18) = (  -0.1250001   0.3608437   1.4758077  )
        19        Zr     tau(  19) = (  -0.2500000   0.4330127   0.7935306  )
        20        B      tau(  20) = (  -0.1250000   0.5051815   0.9260529  )
        21        B      tau(  21) = (  -0.2499999   0.5773502   0.9260530  )
        22        Zr     tau(  22) = (  -0.2500000   0.4330127   1.0651439  )
        23        B      tau(  23) = (  -0.1250000   0.5051815   1.2047801  )
        24        B      tau(  24) = (  -0.2499999   0.5773502   1.2047801  )
        25        Zr     tau(  25) = (  -0.2500000   0.4330127   1.3467058  )
        26        B      tau(  26) = (  -0.1250000   0.5051815   1.4758076  )
        27        B      tau(  27) = (  -0.2500002   0.5773503   1.4758077  )
        28        Zr     tau(  28) = (  -0.3750001   0.6495192   0.7935305  )
        29        B      tau(  29) = (  -0.2499999   0.7216878   0.9260529  )
        30        B      tau(  30) = (  -0.3749999   0.7938566   0.9260528  )
        31        Zr     tau(  31) = (  -0.3749999   0.6495189   1.0651438  )
        32        B      tau(  32) = (  -0.2499999   0.7216878   1.2047800  )
        33        B      tau(  33) = (  -0.3749999   0.7938566   1.2047800  )
        34        Zr     tau(  34) = (  -0.3750000   0.6495191   1.3467057  )
        35        B      tau(  35) = (  -0.2500002   0.7216879   1.4758076  )
        36        B      tau(  36) = (  -0.3750000   0.7938566   1.4758076  )
        37        Zr     tau(  37) = (   0.2499998   0.0000000   0.7935305  )
        38        B      tau(  38) = (   0.3750001   0.0721688   0.9260530  )
        39        B      tau(  39) = (   0.2500001   0.1443376   0.9260529  )
        40        Zr     tau(  40) = (   0.2500001   0.0000000   1.0651438  )
        41        B      tau(  41) = (   0.3750001   0.0721688   1.2047801  )
        42        B      tau(  42) = (   0.2500001   0.1443376   1.2047800  )
        43        Zr     tau(  43) = (   0.2500000   0.0000000   1.3467057  )
        44        B      tau(  44) = (   0.3749998   0.0721686   1.4758077  )
        45        B      tau(  45) = (   0.2499998   0.1443375   1.4758076  )
        46        Zr     tau(  46) = (   0.1249999   0.2165062   0.7935305  )
        47        B      tau(  47) = (   0.2500001   0.2886752   0.9260530  )
        48        B      tau(  48) = (   0.1250000   0.3608440   0.9260530  )
        49        Zr     tau(  49) = (   0.1250001   0.2165065   1.0651438  )
        50        B      tau(  50) = (   0.2500001   0.2886752   1.2047801  )
        51        B      tau(  51) = (   0.1250000   0.3608440   1.2047801  )
        52        Zr     tau(  52) = (   0.1250000   0.2165063   1.3467057  )
        53        B      tau(  53) = (   0.2499998   0.2886751   1.4758077  )
        54        B      tau(  54) = (   0.1250001   0.3608437   1.4758077  )
        55        Zr     tau(  55) = (   0.0000000   0.4330127   0.7935306  )
        56        B      tau(  56) = (   0.1250000   0.5051815   0.9260529  )
        57        B      tau(  57) = (  -0.0000000   0.5773503   0.9260530  )
        58        Zr     tau(  58) = (   0.0000000   0.4330127   1.0651439  )
        59        B      tau(  59) = (   0.1250000   0.5051815   1.2047801  )
        60        B      tau(  60) = (  -0.0000000   0.5773503   1.2047801  )
        61        Zr     tau(  61) = (   0.0000000   0.4330124   1.3467059  )
        62        B      tau(  62) = (   0.1250000   0.5051815   1.4758076  )
        63        B      tau(  63) = (  -0.0000000   0.5773503   1.4758077  )
        64        Zr     tau(  64) = (  -0.1250000   0.6495190   0.7935306  )
        65        B      tau(  65) = (   0.0000000   0.7216878   0.9260529  )
        66        B      tau(  66) = (  -0.1249999   0.7938566   0.9260530  )
        67        Zr     tau(  67) = (  -0.1250000   0.6495190   1.0651439  )
        68        B      tau(  68) = (   0.0000000   0.7216878   1.2047801  )
        69        B      tau(  69) = (  -0.1249999   0.7938566   1.2047801  )
        70        Zr     tau(  70) = (  -0.1250002   0.6495192   1.3467059  )
        71        B      tau(  71) = (   0.0000000   0.7216879   1.4758076  )
        72        B      tau(  72) = (  -0.1250002   0.7938568   1.4758077  )
        73        Zr     tau(  73) = (   0.5000000   0.0000000   0.7935306  )
        74        B      tau(  74) = (   0.6249999   0.0721688   0.9260530  )
        75        B      tau(  75) = (   0.5000000   0.1443376   0.9260529  )
        76        Zr     tau(  76) = (   0.5000000   0.0000000   1.0651439  )
        77        B      tau(  77) = (   0.6249999   0.0721688   1.2047801  )
        78        B      tau(  78) = (   0.5000000   0.1443376   1.2047801  )
        79        Zr     tau(  79) = (   0.5000000   0.0000000   1.3467058  )
        80        B      tau(  80) = (   0.6250002   0.0721686   1.4758077  )
        81        B      tau(  81) = (   0.5000000   0.1443375   1.4758076  )
        82        Zr     tau(  82) = (   0.3750000   0.2165064   0.7935306  )
        83        B      tau(  83) = (   0.5000000   0.2886751   0.9260530  )
        84        B      tau(  84) = (   0.3750000   0.3608439   0.9260529  )
        85        Zr     tau(  85) = (   0.3750000   0.2165064   1.0651439  )
        86        B      tau(  86) = (   0.5000000   0.2886751   1.2047801  )
        87        B      tau(  87) = (   0.3750000   0.3608439   1.2047801  )
        88        Zr     tau(  88) = (   0.3749998   0.2165062   1.3467059  )
        89        B      tau(  89) = (   0.5000000   0.2886751   1.4758077  )
        90        B      tau(  90) = (   0.3750000   0.3608439   1.4758076  )
        91        Zr     tau(  91) = (   0.2500000   0.4330127   0.7935306  )
        92        B      tau(  92) = (   0.3750000   0.5051814   0.9260530  )
        93        B      tau(  93) = (   0.2499999   0.5773502   0.9260530  )
        94        Zr     tau(  94) = (   0.2500000   0.4330127   1.0651439  )
        95        B      tau(  95) = (   0.3750000   0.5051814   1.2047801  )
        96        B      tau(  96) = (   0.2499999   0.5773502   1.2047801  )
        97        Zr     tau(  97) = (   0.2500000   0.4330127   1.3467058  )
        98        B      tau(  98) = (   0.3749999   0.5051817   1.4758077  )
        99        B      tau(  99) = (   0.2500002   0.5773503   1.4758077  )
       100        Zr     tau( 100) = (   0.1250000   0.6495190   0.7935306  )
       101        B      tau( 101) = (   0.2499999   0.7216878   0.9260529  )
       102        B      tau( 102) = (   0.1249999   0.7938566   0.9260530  )
       103        Zr     tau( 103) = (   0.1250000   0.6495190   1.0651439  )
       104        B      tau( 104) = (   0.2499999   0.7216878   1.2047800  )
       105        B      tau( 105) = (   0.1249999   0.7938566   1.2047801  )
       106        Zr     tau( 106) = (   0.1250002   0.6495192   1.3467059  )
       107        B      tau( 107) = (   0.2500002   0.7216879   1.4758076  )
       108        B      tau( 108) = (   0.1250002   0.7938568   1.4758077  )
       109        Zr     tau( 109) = (   0.7500002   0.0000000   0.7935305  )
       110        B      tau( 110) = (   0.8749999   0.0721688   0.9260528  )
       111        B      tau( 111) = (   0.7499999   0.1443376   0.9260529  )
       112        Zr     tau( 112) = (   0.7499999   0.0000000   1.0651438  )
       113        B      tau( 113) = (   0.8749999   0.0721689   1.2047800  )
       114        B      tau( 114) = (   0.7499999   0.1443376   1.2047800  )
       115        Zr     tau( 115) = (   0.7500000   0.0000000   1.3467057  )
       116        B      tau( 116) = (   0.8750000   0.0721688   1.4758076  )
       117        B      tau( 117) = (   0.7500002   0.1443375   1.4758076  )
       118        Zr     tau( 118) = (   0.6250000   0.2165064   0.7935306  )
       119        B      tau( 119) = (   0.7499999   0.2886752   0.9260530  )
       120        B      tau( 120) = (   0.6250000   0.3608439   0.9260529  )
       121        Zr     tau( 121) = (   0.6250000   0.2165064   1.0651439  )
       122        B      tau( 122) = (   0.7499999   0.2886752   1.2047801  )
       123        B      tau( 123) = (   0.6250000   0.3608439   1.2047801  )
       124        Zr     tau( 124) = (   0.6250003   0.2165062   1.3467059  )
       125        B      tau( 125) = (   0.7500002   0.2886751   1.4758077  )
       126        B      tau( 126) = (   0.6250000   0.3608439   1.4758076  )
       127        Zr     tau( 127) = (   0.5000000   0.4330127   0.7935306  )
       128        B      tau( 128) = (   0.6250000   0.5051814   0.9260530  )
       129        B      tau( 129) = (   0.5000000   0.5773501   0.9260529  )
       130        Zr     tau( 130) = (   0.5000000   0.4330127   1.0651439  )
       131        B      tau( 131) = (   0.6250001   0.5051814   1.2047801  )
       132        B      tau( 132) = (   0.5000000   0.5773501   1.2047800  )
       133        Zr     tau( 133) = (   0.5000000   0.4330130   1.3467059  )
       134        B      tau( 134) = (   0.6250001   0.5051817   1.4758077  )
       135        B      tau( 135) = (   0.5000000   0.5773505   1.4758076  )
       136        Zr     tau( 136) = (   0.3750001   0.6495192   0.7935305  )
       137        B      tau( 137) = (   0.5000000   0.7216877   0.9260528  )
       138        B      tau( 138) = (   0.3749999   0.7938566   0.9260528  )
       139        Zr     tau( 139) = (   0.3749999   0.6495189   1.0651438  )
       140        B      tau( 140) = (   0.5000000   0.7216877   1.2047800  )
       141        B      tau( 141) = (   0.3749999   0.7938566   1.2047800  )
       142        Zr     tau( 142) = (   0.3750000   0.6495191   1.3467057  )
       143        B      tau( 143) = (   0.5000000   0.7216879   1.4758076  )
       144        B      tau( 144) = (   0.3750000   0.7938566   1.4758076  )
       145        O      tau( 145) = (   0.3749422   0.3607934   1.5937140  )

     number of k points=     4  Gaussian smearing, width (Ry)=  0.0100
                       cart. coord. in units 2pi/alat
        k(    1) = (   0.0000000   0.0000000   0.0000000), wk =   0.5000000
        k(    2) = (   0.0000000  -0.5773505   0.0000000), wk =   0.5000000
        k(    3) = (   0.5000000  -0.2886753   0.0000000), wk =   0.5000000
        k(    4) = (  -0.5000000  -0.2886753   0.0000000), wk =   0.5000000

     Dense  grid:  3688607 G-vectors     FFT dimensions: ( 160, 160, 360)

     Smooth grid:  1303991 G-vectors     FFT dimensions: ( 120, 120, 250)

     Estimated max dynamical RAM per process >     745.81 MB

     Estimated total dynamical RAM >      45.73 GB

     Atomic positions and unit cell read from directory:
     ./tmp/pwscf.save/
     Atomic positions from file used, from input discarded


     The initial density is read from file :
     ./tmp/pwscf.save/charge-density


     negative rho (up, down):  6.854E-03 0.000E+00
     Cannot read wfcs: file not found
     Starting wfcs are 1012 randomized atomic wfcs
     Checking if some PAW data can be deallocated... 

     total cpu time spent up to now is       42.8 secs

     per-process dynamical memory:   458.8 Mb

     Self-consistent Calculation

     iteration #  1     ecut=    50.00 Ry     beta= 0.70
     Davidson diagonalization with overlap
     ethr =  1.00E-05,  avg # of iterations = 19.2

     negative rho (up, down):  6.661E-03 0.000E+00

     total cpu time spent up to now is      204.6 secs

     total energy              =  -15893.79114984 Ry
     estimated scf accuracy    <       0.08259262 Ry

     iteration #  2     ecut=    50.00 Ry     beta= 0.70
     Davidson diagonalization with overlap
     ethr =  9.49E-06,  avg # of iterations =  2.0

     negative rho (up, down):  6.664E-03 0.000E+00

     total cpu time spent up to now is      261.5 secs

     total energy              =  -15893.79243757 Ry
     estimated scf accuracy    <       0.01451823 Ry

     iteration #  3     ecut=    50.00 Ry     beta= 0.70
     Davidson diagonalization with overlap
     ethr =  1.67E-06,  avg # of iterations =  2.8

     negative rho (up, down):  6.607E-03 0.000E+00

     total cpu time spent up to now is      324.8 secs

     total energy              =  -15893.79386280 Ry
     estimated scf accuracy    <       0.00223949 Ry

     iteration #  4     ecut=    50.00 Ry     beta= 0.70
     Davidson diagonalization with overlap
     ethr =  2.57E-07,  avg # of iterations =  4.0

     negative rho (up, down):  6.604E-03 0.000E+00

     total cpu time spent up to now is      392.3 secs

     total energy              =  -15893.79420358 Ry
     estimated scf accuracy    <       0.00015483 Ry

     iteration #  5     ecut=    50.00 Ry     beta= 0.70
     Davidson diagonalization with overlap
     ethr =  1.78E-08,  avg # of iterations =  4.0

     negative rho (up, down):  6.614E-03 0.000E+00

     total cpu time spent up to now is      463.3 secs

     total energy              =  -15893.79423520 Ry
     estimated scf accuracy    <       0.00002959 Ry

     iteration #  6     ecut=    50.00 Ry     beta= 0.70
     Davidson diagonalization with overlap
     ethr =  3.40E-09,  avg # of iterations =  4.0

     negative rho (up, down):  6.631E-03 0.000E+00

     total cpu time spent up to now is      529.4 secs

     total energy              =  -15893.79423861 Ry
     estimated scf accuracy    <       0.00000566 Ry

     iteration #  7     ecut=    50.00 Ry     beta= 0.70
     Davidson diagonalization with overlap
     ethr =  6.50E-10,  avg # of iterations =  4.0

     negative rho (up, down):  6.651E-03 0.000E+00

     total cpu time spent up to now is      594.1 secs

     total energy              =  -15893.79423938 Ry
     estimated scf accuracy    <       0.00000051 Ry

     iteration #  8     ecut=    50.00 Ry     beta= 0.70
     Davidson diagonalization with overlap
     ethr =  5.90E-11,  avg # of iterations =  4.2

     negative rho (up, down):  6.668E-03 0.000E+00

     total cpu time spent up to now is      668.1 secs

     total energy              =  -15893.79423948 Ry
     estimated scf accuracy    <       0.00000039 Ry

     iteration #  9     ecut=    50.00 Ry     beta= 0.70
     Davidson diagonalization with overlap
     ethr =  4.44E-11,  avg # of iterations =  1.0

     negative rho (up, down):  6.701E-03 0.000E+00

     total cpu time spent up to now is      717.2 secs

     total energy              =  -15893.79423941 Ry
     estimated scf accuracy    <       0.00000014 Ry

     iteration # 10     ecut=    50.00 Ry     beta= 0.70
     Davidson diagonalization with overlap
     ethr =  1.63E-11,  avg # of iterations =  2.0

     negative rho (up, down):  6.857E-03 0.000E+00

     total cpu time spent up to now is      773.1 secs

     End of self-consistent calculation

          k = 0.0000 0.0000 0.0000 (162831 PWs)   bands (ev):

   -46.4164 -46.3665 -46.3664 -46.3641 -46.3635 -46.3614 -46.3604 -46.3165
   -46.3133 -46.3110 -46.3098 -46.3093 -46.3091 -46.3083 -46.3080 -46.3069
   -45.9836 -45.9314 -45.9291 -45.9283 -45.9282 -45.9269 -45.9262 -45.8770
   -45.8740 -45.8732 -45.8723 -45.8722 -45.8714 -45.8708 -45.8702 -45.8701
   -45.8338 -45.8210 -45.7411 -45.7270 -45.7162 -45.7025 -45.7012 -45.6968
   -45.6750 -45.6631 -45.6490 -45.6331 -45.6081 -45.6029 -45.6016 -45.5942
   -24.8362 -24.8360 -24.8357 -24.7473 -24.6849 -24.6847 -24.6846 -24.6842
   -24.6834 -24.6827 -24.6689 -24.6687 -24.6664 -24.6650 -24.6632 -24.6626
   -24.5800 -24.5770 -24.5737 -24.5733 -24.5727 -24.5708 -24.5707 -24.5700
   -24.5689 -24.5206 -24.5205 -24.5201 -24.4290 -24.4284 -24.4272 -24.4270
   -24.4264 -24.4255 -24.3625 -24.3624 -24.3610 -24.3610 -24.3608 -24.3586
   -24.3575 -24.3571 -24.3566 -24.3562 -24.3546 -24.3537 -24.3448 -24.3393
   -24.3357 -24.3214 -24.2491 -24.2463 -24.2456 -24.2443 -24.2428 -24.2419
   -24.1926 -24.1921 -24.1921 -24.1775 -24.1751 -24.1675 -24.1630 -24.1541
   -24.1504 -24.1483 -24.1466 -24.1431 -24.1425 -24.1417 -24.1400 -24.1393
   -24.1388 -24.1316 -24.1259 -24.0994 -24.0985 -24.0976 -24.0973 -24.0971
   -24.0965 -24.0963 -24.0940 -24.0918 -24.0913 -24.0912 -24.0909 -24.0831
   -24.0477 -24.0248 -24.0168 -24.0159 -24.0157 -24.0134 -24.0132 -24.0124
   -24.0106 -24.0011 -24.0009 -24.0008 -23.9951 -23.9654 -23.9384 -23.9341
   -23.9224 -23.9125 -23.9092 -23.9051 -23.9040 -23.8932 -23.8849 -23.8815
   -23.8812 -23.8775 -23.8731 -23.8560 -23.8337 -23.8334 -23.8329 -23.8287
   -23.8262 -23.8236 -23.8171 -23.7825 -23.7655 -23.7349 -23.7349 -23.7341
   -23.7337 -23.7336 -23.7330 -23.6328 -23.6322 -23.6322 -23.6143 -23.6133
   -23.5404 -23.5325 -23.5245 -23.5120 -23.5019 -23.4823 -23.4105 -23.4078
   -18.0379  -9.6708  -8.7983  -8.6311  -8.6285  -8.6229  -8.6223  -8.6213
    -8.6207  -8.0898  -8.0829  -8.0792  -8.0774  -8.0752  -8.0737  -7.4298
    -7.0180  -7.0179  -7.0168  -7.0164  -7.0157  -7.0157  -6.9851  -6.9850
    -6.9810  -6.9286  -6.8930  -6.8262  -6.8247  -6.8178  -6.8163  -6.8099
    -6.8062  -6.8037  -6.7776  -6.7713  -6.5489  -6.3394  -6.3391  -6.3226
    -5.9397  -5.9393  -5.9372  -5.7106  -5.5273  -5.5212  -5.4779  -5.4061
    -5.2999  -5.1465  -5.1104  -5.1086  -5.0736  -5.0154  -4.9146  -4.5811
    -4.5806  -4.5806  -4.5801  -4.5794  -4.5790  -4.2714  -4.2210  -4.2200
    -4.2156  -4.2137  -4.2126  -4.1749  -3.8510  -3.8297  -3.6680  -3.5065
    -3.2634  -3.0731  -3.0718  -3.0311  -2.9431  -2.8927  -2.8906  -2.8905
    -2.8900  -2.8887  -2.8886  -2.7254  -2.7221  -2.7207  -2.7194  -2.7190
    -2.7181  -2.5684  -2.4523  -2.4487  -2.4448  -2.4434  -2.4421  -2.4421
    -2.4403  -2.4367  -2.4235  -2.4210  -2.4110  -2.3753  -2.2587  -2.2095
    -2.1872  -2.1745  -2.1702  -2.1621  -2.1612  -2.1188  -1.9955  -1.7048
    -1.7026  -1.7022  -1.3073  -1.2994  -1.2933  -1.2928  -1.2810  -1.2771
    -1.2199  -1.1987  -1.1938  -1.1740  -1.0664  -1.0176  -0.9947  -0.9920
    -0.9864  -0.9552  -0.9517  -0.9447  -0.9297  -0.9038  -0.8441  -0.8238
    -0.7744  -0.7712  -0.7709  -0.7682  -0.7676  -0.7672  -0.7660  -0.7659
    -0.7578  -0.6120  -0.6115  -0.6114  -0.6105  -0.6100  -0.6097  -0.5712
    -0.4937  -0.4859  -0.2929  -0.2905  -0.2773  -0.2741  -0.2714  -0.2692
    -0.2659  -0.2594  -0.2569  -0.2537  -0.1262  -0.0830  -0.0154   0.0105
     0.0789   0.1088   0.1235   0.1450   0.1487   0.1544   0.1545   0.1610
     0.1624   0.1630   0.1695   0.1765   0.1821   0.1887   0.1931   0.1990
     0.2009   0.2030   0.2080   0.2929   0.3098   0.3599   0.5729   0.7283
     0.8284   0.8501   0.8579   0.8649   0.8773   0.9048   0.9119   0.9260
     0.9283   0.9379   0.9386   0.9469   0.9486   0.9496   0.9580   0.9675
     0.9720   1.0111   1.1250   1.1262   1.1263   1.1284   1.1296   1.1297
     1.3087   1.4939   1.6224   1.7125   1.8014   1.8235   1.8907   1.9049
     1.9054   1.9055   1.9074   1.9075   1.9077   1.9298   2.0460   2.0686
     2.1836   2.2059   2.2287   2.2303   2.2313   2.2316   2.2338   2.2351
     2.3388   2.4079   2.4531   2.4981   2.5094   2.5213   2.5235   2.5453
     2.5476   2.5557   2.5658   2.5695   2.6472   2.7434   3.1029   3.2461
     3.2467   3.2469   3.2929   3.2963   3.3848   3.5019   3.5890   3.6308
     3.6505   3.7646   3.8003   3.8208   3.8209   3.8229   3.8239   3.8280
     3.8286   3.8308   3.8315   3.8322   3.8430   3.8924   3.8966   3.9706
     4.1385   4.2599   4.2716   4.2874   4.2908   4.2993   4.6341   4.6796
     4.7109   4.7168   4.7199   4.7204   4.7213   4.7241   4.7262   4.7485
     4.7632   4.7756   4.7984   4.8543   4.8588   4.8692   4.8714   4.8792
     4.8955   4.9002   4.9030   4.9152   4.9213   4.9423   4.9526   4.9586
     4.9593   4.9617   4.9630   4.9650   5.1272   5.1812   5.1964   5.2302
     5.2405   5.2415   5.2460   5.2575   5.2638   5.2699   5.2741   5.2943
     5.3923   5.4970

          k = 0.0000-0.5774 0.0000 (163042 PWs)   bands (ev):

   -46.4021 -46.4000 -46.3756 -46.3737 -46.3394 -46.3387 -46.3364 -46.3352
   -46.3268 -46.3246 -46.3123 -46.3108 -46.3091 -46.3087 -46.2994 -46.2981
   -45.9686 -45.9664 -45.9405 -45.9392 -45.9017 -45.9017 -45.8996 -45.8993
   -45.8898 -45.8879 -45.8739 -45.8732 -45.8714 -45.8708 -45.8612 -45.8600
   -45.8328 -45.8218 -45.7406 -45.7259 -45.7213 -45.7143 -45.6927 -45.6801
   -45.6759 -45.6721 -45.6482 -45.6340 -45.6096 -45.6044 -45.5986 -45.5942
   -24.7740 -24.7734 -24.7710 -24.7709 -24.7247 -24.7242 -24.7230 -24.7220
   -24.6875 -24.6861 -24.6833 -24.6811 -24.6380 -24.6376 -24.6360 -24.6353
   -24.5977 -24.5958 -24.5777 -24.5766 -24.5750 -24.5744 -24.5739 -24.5736
   -24.5727 -24.5724 -24.5577 -24.5561 -24.4624 -24.4603 -24.4536 -24.4531
   -24.4510 -24.4504 -24.3992 -24.3967 -24.3615 -24.3615 -24.3285 -24.3264
   -24.3175 -24.3137 -24.2957 -24.2808 -24.2657 -24.2654 -24.2647 -24.2645
   -24.2638 -24.2636 -24.2629 -24.2629 -24.2625 -24.2625 -24.2420 -24.2388
   -24.2209 -24.1965 -24.1946 -24.1945 -24.1942 -24.1935 -24.1935 -24.1918
   -24.1916 -24.1899 -24.1740 -24.1712 -24.1694 -24.1659 -24.1635 -24.1515
   -24.1469 -24.1461 -24.1406 -24.1397 -24.1297 -24.1292 -24.1278 -24.1225
   -24.1217 -24.1195 -24.1127 -24.0963 -24.0938 -24.0916 -24.0764 -24.0746
   -24.0620 -24.0551 -24.0534 -24.0314 -24.0304 -24.0283 -24.0049 -24.0018
   -23.9848 -23.9819 -23.9587 -23.9518 -23.9453 -23.9436 -23.9362 -23.9285
   -23.9117 -23.9104 -23.9091 -23.9087 -23.9083 -23.9028 -23.8942 -23.8858
   -23.8750 -23.8689 -23.8359 -23.8356 -23.8344 -23.8336 -23.8115 -23.8053
   -23.8031 -23.7711 -23.7707 -23.7690 -23.7302 -23.7289 -23.7236 -23.7197
   -23.6872 -23.6834 -23.6631 -23.6616 -23.6518 -23.6425 -23.6125 -23.6111
   -23.5878 -23.5716 -23.5582 -23.5415 -23.5125 -23.4871 -23.4546 -23.4278
   -18.0379  -9.3911  -9.3906  -8.8705  -8.8649  -8.6018  -8.5969  -8.2454
    -8.2356  -7.9391  -7.9368  -7.9347  -7.9340  -7.6308  -7.6250  -7.6192
    -7.6184  -7.5435  -7.5428  -7.3737  -7.3678  -7.2998  -7.2423  -7.0243
    -6.9929  -6.9915  -6.9889  -6.9874  -6.8970  -6.6826  -6.6785  -6.6771
    -6.6765  -6.4013  -6.3849  -6.3656  -6.3623  -6.3251  -6.1611  -6.0410
    -5.9393  -5.8019  -5.8014  -5.6532  -5.5069  -5.4829  -5.4624  -5.4621
    -5.4261  -5.2280  -5.2259  -5.0939  -5.0560  -5.0510  -5.0489  -4.7505
    -4.6135  -4.6110  -4.5986  -4.5405  -4.5234  -4.4482  -4.4437  -4.2916
    -4.0190  -3.9827  -3.9805  -3.8410  -3.6974  -3.5627  -3.5623  -3.5614
    -3.5610  -3.4828  -3.4783  -3.3742  -3.3273  -3.2899  -3.2863  -3.2389
    -3.2241  -3.2218  -3.2151  -3.1727  -2.9470  -2.8389  -2.7207  -2.6500
    -2.6227  -2.6071  -2.4631  -2.2862  -2.1656  -2.1241  -2.1200  -2.1176
    -2.1166  -2.0519  -2.0078  -1.9542  -1.9366  -1.9164  -1.9151  -1.8861
    -1.7969  -1.7893  -1.7869  -1.7849  -1.7526  -1.7482  -1.7223  -1.6862
    -1.6467  -1.6433  -1.6385  -1.6338  -1.6089  -1.6017  -1.5496  -1.5393
    -1.4603  -1.4564  -1.2325  -1.2271  -1.1901  -1.1807  -1.1667  -1.1589
    -1.0902  -1.0595  -0.9040  -0.9006  -0.8735  -0.8576  -0.7985  -0.7971
    -0.7959  -0.7902  -0.7891  -0.7853  -0.7797  -0.7766  -0.7636  -0.7626
    -0.7574  -0.7417  -0.7006  -0.6928  -0.6492  -0.6470  -0.4700  -0.4668
    -0.4242  -0.4107  -0.4089  -0.4033  -0.3482  -0.3293  -0.2786  -0.2633
    -0.2493  -0.2412  -0.2348  -0.2266  -0.1576  -0.1440  -0.1257  -0.1162
    -0.1138  -0.0114   0.0026   0.0033   0.0681   0.0858   0.1129   0.1149
     0.1569   0.1638   0.1678   0.1721   0.2149   0.2572   0.2589   0.3704
     0.3957   0.4002   0.4179   0.4209   0.4305   0.4343   0.4448   0.4466
     0.4528   0.5328   0.6181   0.6313   0.6466   0.6530   0.6739   0.7064
     0.8082   0.8171   0.9174   0.9560   0.9838   1.0179   1.1729   1.1766
     1.2196   1.2260   1.2354   1.2379   1.2470   1.2533   1.2647   1.2851
     1.3752   1.3856   1.4528   1.4750   1.6699   1.7012   1.8038   1.8712
     1.9510   1.9534   2.0531   2.0596   2.0715   2.0913   2.1468   2.1812
     2.2092   2.2126   2.2236   2.2276   2.2920   2.3270   2.3611   2.3906
     2.3960   2.4045   2.4423   2.4986   2.5373   2.5472   2.5934   2.5939
     2.6084   2.6235   2.6926   2.6931   2.7278   2.8424   2.8952   2.8961
     2.8973   2.8983   3.1465   3.1552   3.1935   3.2043   3.2857   3.6215
     3.6481   3.6920   3.7033   3.7055   3.7229   3.7241   3.7284   3.7497
     3.8094   3.8161   3.8532   3.8951   3.9597   3.9619   3.9743   4.0121
     4.0332   4.0377   4.0419   4.2565   4.2889   4.3556   4.3587   4.4371
     4.4657   4.6520   4.7115   4.7128   4.7156   4.7371   4.7496   4.7534
     4.7935   4.8038   4.8339   4.8399   4.9061   4.9244   4.9539   4.9774
     5.1074   5.1420   5.1604   5.1633   5.1886   5.1904   5.1931   5.2112
     5.2252   5.2272   5.2645   5.2678   5.2823   5.2853   5.3116   5.3328
     5.3394   5.4444   5.4574   5.4659   5.4718   5.4833   5.5475   5.5594
     5.5692   5.6203

          k = 0.5000-0.2887 0.0000 (163042 PWs)   bands (ev):

   -46.4022 -46.4000 -46.3756 -46.3737 -46.3394 -46.3388 -46.3364 -46.3352
   -46.3268 -46.3246 -46.3123 -46.3108 -46.3091 -46.3087 -46.2994 -46.2981
   -45.9686 -45.9664 -45.9405 -45.9392 -45.9017 -45.9017 -45.8996 -45.8993
   -45.8899 -45.8879 -45.8739 -45.8731 -45.8714 -45.8708 -45.8612 -45.8600
   -45.8328 -45.8218 -45.7406 -45.7259 -45.7213 -45.7143 -45.6927 -45.6801
   -45.6759 -45.6721 -45.6483 -45.6340 -45.6096 -45.6045 -45.5986 -45.5943
   -24.7740 -24.7734 -24.7710 -24.7709 -24.7247 -24.7242 -24.7230 -24.7220
   -24.6875 -24.6861 -24.6833 -24.6811 -24.6379 -24.6376 -24.6360 -24.6353
   -24.5977 -24.5958 -24.5777 -24.5766 -24.5750 -24.5744 -24.5739 -24.5736
   -24.5727 -24.5724 -24.5577 -24.5561 -24.4624 -24.4603 -24.4537 -24.4531
   -24.4510 -24.4503 -24.3992 -24.3967 -24.3615 -24.3614 -24.3285 -24.3264
   -24.3175 -24.3137 -24.2957 -24.2808 -24.2657 -24.2654 -24.2647 -24.2645
   -24.2638 -24.2636 -24.2629 -24.2629 -24.2625 -24.2625 -24.2420 -24.2388
   -24.2209 -24.1965 -24.1946 -24.1945 -24.1942 -24.1935 -24.1935 -24.1918
   -24.1916 -24.1899 -24.1740 -24.1712 -24.1695 -24.1659 -24.1635 -24.1515
   -24.1469 -24.1461 -24.1406 -24.1396 -24.1297 -24.1292 -24.1278 -24.1225
   -24.1217 -24.1195 -24.1127 -24.0963 -24.0938 -24.0916 -24.0764 -24.0746
   -24.0620 -24.0552 -24.0534 -24.0314 -24.0304 -24.0283 -24.0047 -24.0019
   -23.9848 -23.9819 -23.9587 -23.9516 -23.9456 -23.9434 -23.9361 -23.9285
   -23.9117 -23.9104 -23.9091 -23.9087 -23.9083 -23.9028 -23.8942 -23.8859
   -23.8750 -23.8689 -23.8359 -23.8356 -23.8344 -23.8336 -23.8115 -23.8053
   -23.8031 -23.7711 -23.7707 -23.7691 -23.7302 -23.7289 -23.7237 -23.7196
   -23.6873 -23.6833 -23.6631 -23.6616 -23.6517 -23.6425 -23.6126 -23.6111
   -23.5878 -23.5717 -23.5582 -23.5415 -23.5125 -23.4871 -23.4546 -23.4278
   -18.0379  -9.3911  -9.3906  -8.8705  -8.8649  -8.6018  -8.5969  -8.2454
    -8.2356  -7.9392  -7.9368  -7.9347  -7.9340  -7.6308  -7.6249  -7.6193
    -7.6184  -7.5435  -7.5428  -7.3737  -7.3678  -7.2997  -7.2424  -7.0243
    -6.9929  -6.9915  -6.9890  -6.9874  -6.8968  -6.6826  -6.6785  -6.6771
    -6.6765  -6.4013  -6.3849  -6.3656  -6.3623  -6.3252  -6.1611  -6.0410
    -5.9393  -5.8020  -5.8013  -5.6531  -5.5069  -5.4829  -5.4624  -5.4621
    -5.4263  -5.2280  -5.2259  -5.0939  -5.0560  -5.0510  -5.0489  -4.7505
    -4.6136  -4.6110  -4.5986  -4.5408  -4.5228  -4.4483  -4.4438  -4.2919
    -4.0190  -3.9826  -3.9805  -3.8412  -3.6975  -3.5627  -3.5623  -3.5614
    -3.5610  -3.4827  -3.4780  -3.3741  -3.3273  -3.2899  -3.2863  -3.2389
    -3.2240  -3.2218  -3.2152  -3.1726  -2.9473  -2.8389  -2.7207  -2.6501
    -2.6227  -2.6072  -2.4630  -2.2862  -2.1656  -2.1241  -2.1201  -2.1176
    -2.1166  -2.0520  -2.0078  -1.9542  -1.9365  -1.9164  -1.9151  -1.8860
    -1.7970  -1.7892  -1.7869  -1.7849  -1.7526  -1.7482  -1.7223  -1.6862
    -1.6467  -1.6433  -1.6385  -1.6338  -1.6089  -1.6017  -1.5496  -1.5393
    -1.4603  -1.4563  -1.2325  -1.2271  -1.1901  -1.1808  -1.1666  -1.1590
    -1.0902  -1.0594  -0.9039  -0.9006  -0.8735  -0.8577  -0.7985  -0.7972
    -0.7959  -0.7902  -0.7891  -0.7853  -0.7797  -0.7766  -0.7637  -0.7625
    -0.7574  -0.7417  -0.7006  -0.6928  -0.6492  -0.6471  -0.4700  -0.4667
    -0.4242  -0.4107  -0.4089  -0.4033  -0.3481  -0.3293  -0.2786  -0.2632
    -0.2493  -0.2411  -0.2348  -0.2266  -0.1575  -0.1440  -0.1257  -0.1163
    -0.1137  -0.0114   0.0026   0.0034   0.0681   0.0858   0.1128   0.1149
     0.1570   0.1638   0.1678   0.1721   0.2149   0.2573   0.2589   0.3703
     0.3957   0.4002   0.4179   0.4209   0.4305   0.4343   0.4448   0.4466
     0.4528   0.5331   0.6181   0.6313   0.6466   0.6530   0.6738   0.7064
     0.8083   0.8169   0.9172   0.9560   0.9838   1.0179   1.1729   1.1767
     1.2196   1.2260   1.2353   1.2380   1.2470   1.2532   1.2646   1.2852
     1.3751   1.3857   1.4527   1.4752   1.6700   1.7012   1.8038   1.8713
     1.9510   1.9534   2.0531   2.0597   2.0715   2.0913   2.1467   2.1814
     2.2092   2.2127   2.2236   2.2275   2.2921   2.3269   2.3610   2.3904
     2.3962   2.4046   2.4424   2.4986   2.5373   2.5472   2.5934   2.5939
     2.6084   2.6233   2.6926   2.6931   2.7277   2.8426   2.8952   2.8961
     2.8973   2.8983   3.1464   3.1552   3.1933   3.2043   3.2855   3.6215
     3.6481   3.6920   3.7033   3.7055   3.7228   3.7241   3.7284   3.7497
     3.8094   3.8161   3.8532   3.8951   3.9596   3.9622   3.9745   4.0120
     4.0333   4.0377   4.0419   4.2565   4.2888   4.3556   4.3588   4.4371
     4.4657   4.6520   4.7115   4.7128   4.7156   4.7371   4.7496   4.7534
     4.7934   4.8039   4.8338   4.8399   4.9061   4.9244   4.9539   4.9774
     5.1074   5.1421   5.1605   5.1635   5.1886   5.1905   5.1930   5.2112
     5.2251   5.2273   5.2648   5.2675   5.2823   5.2852   5.3115   5.3328
     5.3393   5.4444   5.4574   5.4659   5.4718   5.4833   5.5475   5.5594
     5.5692   5.6204

          k =-0.5000-0.2887 0.0000 (163042 PWs)   bands (ev):

   -46.4020 -46.4001 -46.3762 -46.3730 -46.3399 -46.3380 -46.3379 -46.3337
   -46.3268 -46.3251 -46.3120 -46.3105 -46.3091 -46.3089 -46.3001 -46.2975
   -45.9680 -45.9671 -45.9401 -45.9395 -45.9024 -45.9017 -45.9003 -45.8983
   -45.8890 -45.8883 -45.8741 -45.8730 -45.8717 -45.8707 -45.8609 -45.8602
   -45.8321 -45.8226 -45.7401 -45.7289 -45.7191 -45.7051 -45.6985 -45.6923
   -45.6748 -45.6631 -45.6469 -45.6342 -45.6143 -45.6027 -45.5967 -45.5951
   -24.7733 -24.7731 -24.7722 -24.7711 -24.7243 -24.7238 -24.7236 -24.7222
   -24.6879 -24.6855 -24.6839 -24.6803 -24.6385 -24.6375 -24.6371 -24.6337
   -24.5980 -24.5957 -24.5791 -24.5751 -24.5746 -24.5740 -24.5738 -24.5736
   -24.5735 -24.5723 -24.5588 -24.5553 -24.4626 -24.4602 -24.4527 -24.4525
   -24.4521 -24.4519 -24.3977 -24.3974 -24.3621 -24.3598 -24.3287 -24.3264
   -24.3165 -24.3148 -24.2795 -24.2739 -24.2662 -24.2654 -24.2650 -24.2649
   -24.2644 -24.2642 -24.2629 -24.2622 -24.2621 -24.2615 -24.2568 -24.2459
   -24.2268 -24.2054 -24.1952 -24.1948 -24.1943 -24.1939 -24.1937 -24.1930
   -24.1916 -24.1912 -24.1727 -24.1723 -24.1654 -24.1641 -24.1611 -24.1454
   -24.1445 -24.1437 -24.1428 -24.1417 -24.1304 -24.1278 -24.1255 -24.1234
   -24.1211 -24.1192 -24.1102 -24.1031 -24.0943 -24.0911 -24.0841 -24.0811
   -24.0560 -24.0512 -24.0412 -24.0306 -24.0282 -24.0245 -24.0240 -23.9870
   -23.9817 -23.9785 -23.9744 -23.9693 -23.9477 -23.9331 -23.9283 -23.9217
   -23.9137 -23.9107 -23.9098 -23.9089 -23.9087 -23.9082 -23.8892 -23.8822
   -23.8736 -23.8706 -23.8365 -23.8361 -23.8338 -23.8332 -23.8106 -23.8050
   -23.8044 -23.7713 -23.7694 -23.7411 -23.7297 -23.7286 -23.7245 -23.7211
   -23.7170 -23.7008 -23.6632 -23.6625 -23.6548 -23.6322 -23.5980 -23.5956
   -23.5861 -23.5789 -23.5692 -23.5430 -23.5240 -23.4835 -23.4407 -23.4345
   -18.0379  -9.3923  -9.3895  -8.8699  -8.8654  -8.6037  -8.5952  -8.2415
    -8.2397  -7.9407  -7.9364  -7.9358  -7.9318  -7.6334  -7.6242  -7.6217
    -7.6128  -7.5433  -7.5428  -7.3727  -7.3702  -7.3083  -7.2404  -7.0163
    -6.9923  -6.9909  -6.9898  -6.9892  -6.8694  -6.6819  -6.6802  -6.6776
    -6.6756  -6.4216  -6.4140  -6.3641  -6.3637  -6.3001  -6.1544  -6.1250
    -5.9351  -5.8067  -5.8042  -5.5485  -5.5006  -5.4904  -5.4633  -5.4632
    -5.3879  -5.2308  -5.2223  -5.0646  -5.0591  -5.0551  -5.0375  -4.8404
    -4.6237  -4.6202  -4.6008  -4.5950  -4.5454  -4.4451  -4.4450  -4.1347
    -4.1085  -3.9798  -3.9419  -3.9217  -3.6384  -3.5623  -3.5621  -3.5617
    -3.5612  -3.4956  -3.4663  -3.3457  -3.3163  -3.2955  -3.2836  -3.2281
    -3.2226  -3.2198  -3.2155  -3.1356  -3.0576  -2.7367  -2.7008  -2.6904
    -2.6307  -2.6240  -2.4408  -2.3995  -2.2101  -2.1285  -2.1195  -2.1191
    -2.1176  -2.0912  -1.9479  -1.9444  -1.9153  -1.9137  -1.9094  -1.8914
    -1.7962  -1.7949  -1.7905  -1.7894  -1.7573  -1.7234  -1.7070  -1.7036
    -1.6579  -1.6437  -1.6388  -1.6208  -1.6150  -1.5498  -1.5413  -1.5393
    -1.4594  -1.4566  -1.2391  -1.2296  -1.1833  -1.1739  -1.1536  -1.1413
    -1.1335  -0.9412  -0.9085  -0.8829  -0.8741  -0.8710  -0.8005  -0.7964
    -0.7936  -0.7934  -0.7897  -0.7814  -0.7802  -0.7766  -0.7626  -0.7616
    -0.7607  -0.7488  -0.7216  -0.6932  -0.6553  -0.6463  -0.4702  -0.4296
    -0.4244  -0.4239  -0.4157  -0.4069  -0.3470  -0.3395  -0.2798  -0.2794
    -0.2483  -0.2456  -0.2328  -0.2272  -0.1658  -0.1600  -0.1422  -0.1169
    -0.0896  -0.0874   0.0041   0.0047   0.0581   0.0727   0.1013   0.1591
     0.1605   0.1641   0.1660   0.1684   0.2472   0.2594   0.2623   0.2987
     0.3960   0.4009   0.4025   0.4189   0.4242   0.4404   0.4433   0.4512
     0.4517   0.5222   0.5557   0.6396   0.6416   0.6518   0.6627   0.7607
     0.8189   0.8602   0.9575   0.9810   1.0055   1.0329   1.1579   1.1933
     1.2134   1.2186   1.2224   1.2371   1.2526   1.2558   1.2767   1.2790
     1.3114   1.3605   1.4290   1.4608   1.7023   1.7129   1.8308   1.8328
     1.9504   1.9516   2.0349   2.0806   2.0972   2.1298   2.1678   2.1978
     2.2131   2.2195   2.2385   2.2398   2.2434   2.3198   2.3398   2.3644
     2.3836   2.3984   2.4379   2.5284   2.5353   2.5416   2.5920   2.5952
     2.6007   2.6222   2.6927   2.6932   2.7862   2.8952   2.8957   2.8959
     2.8979   2.9677   3.0027   3.1921   3.1965   3.1999   3.2264   3.6399
     3.6436   3.6845   3.7020   3.7083   3.7198   3.7242   3.7273   3.7988
     3.8173   3.8191   3.8486   3.9112   3.9359   3.9478   3.9582   3.9936
     4.0323   4.0575   4.0677   4.2236   4.2706   4.3538   4.3554   4.4051
     4.4493   4.6295   4.7113   4.7130   4.7150   4.7192   4.7495   4.7511
     4.7871   4.8215   4.8349   4.8452   4.8668   4.9254   4.9390   5.1131
     5.1201   5.1469   5.1486   5.1528   5.1672   5.1857   5.2014   5.2221
     5.2329   5.2382   5.2460   5.2770   5.2818   5.2838   5.3253   5.3494
     5.3901   5.3989   5.4419   5.4567   5.4737   5.4802   5.4824   5.5836
     5.5855   5.6503

     the Fermi energy is     2.4615 ev

!    total energy              =  -15893.79423909 Ry
     total all-electron energy =   -350412.289176 Ry
     estimated scf accuracy    <       0.00000004 Ry
     smearing contrib. (-TS)   =      -0.04848083 Ry
     internal energy E=F+TS    =  -15893.74575827 Ry

     The total energy is F=E-TS. E is the sum of the following terms:
     one-electron contribution =  -69862.16281633 Ry
     hartree contribution      =   35072.89828031 Ry
     xc contribution           =   -1156.33748627 Ry
     ewald contribution        =   30642.57240384 Ry
     one-center paw contrib.   =  -10590.71613982 Ry

     convergence has been achieved in  10 iterations

     negative rho (up, down):  6.857E-03 0.000E+00

     Forces acting on atoms (cartesian axes, Ry/au):

     atom    1 type  1   force =     0.00005625    0.00007392    0.00017715
     atom    2 type  2   force =     0.00018092    0.00017197   -0.00008630
     atom    3 type  2   force =     0.00028175    0.00015550   -0.00005549
     atom    4 type  1   force =     0.00024698    0.00001687   -0.00006563
     atom    5 type  2   force =    -0.00005884    0.00011024   -0.00010547
     atom    6 type  2   force =     0.00009592    0.00004253   -0.00045630
     atom    7 type  1   force =    -0.00099592    0.00053406   -0.00018393
     atom    8 type  2   force =    -0.00129649   -0.00149858   -0.00007439
     atom    9 type  2   force =     0.00059843    0.00035610   -0.00001349
     atom   10 type  1   force =     0.00010197   -0.00000191    0.00017867
     atom   11 type  2   force =     0.00024778    0.00006301   -0.00008728
     atom   12 type  2   force =     0.00005450    0.00038407   -0.00001216
     atom   13 type  1   force =     0.00016644    0.00017993   -0.00006435
     atom   14 type  2   force =     0.00006934   -0.00012159   -0.00010770
     atom   15 type  2   force =     0.00003698   -0.00007774   -0.00030710
     atom   16 type  1   force =    -0.00008334   -0.00112634   -0.00017399
     atom   17 type  2   force =    -0.00194877   -0.00041141   -0.00012235
     atom   18 type  2   force =     0.00007902    0.00040878   -0.00038743
     atom   19 type  1   force =     0.00009497    0.00007699   -0.00000084
     atom   20 type  2   force =     0.00011030    0.00016474   -0.00022592
     atom   21 type  2   force =     0.00028139    0.00015938   -0.00006946
     atom   22 type  1   force =     0.00013413    0.00037658    0.00000167
     atom   23 type  2   force =    -0.00020470    0.00025514   -0.00026199
     atom   24 type  2   force =    -0.00018962   -0.00010614    0.00017330
     atom   25 type  1   force =     0.00027330    0.00018977    0.00004125
     atom   26 type  2   force =    -0.00010325    0.00083736   -0.00043134
     atom   27 type  2   force =     0.00033352    0.00023866   -0.00039238
     atom   28 type  1   force =     0.00011535    0.00003130    0.00000343
     atom   29 type  2   force =     0.00020171    0.00000298   -0.00022580
     atom   30 type  2   force =     0.00036307   -0.00015417   -0.00001213
     atom   31 type  1   force =     0.00038657   -0.00008438    0.00001221
     atom   32 type  2   force =     0.00011259   -0.00031127   -0.00026187
     atom   33 type  2   force =    -0.00005921    0.00005368   -0.00029822
     atom   34 type  1   force =     0.00032901    0.00019926    0.00001362
     atom   35 type  2   force =     0.00066769   -0.00051016   -0.00042392
     atom   36 type  2   force =     0.00039497   -0.00013870   -0.00034351
     atom   37 type  1   force =     0.00010153    0.00011534   -0.00003187
     atom   38 type  2   force =     0.00014445    0.00008851    0.00000748
     atom   39 type  2   force =     0.00010841    0.00013354   -0.00002066
     atom   40 type  1   force =     0.00017776   -0.00015124   -0.00017122
     atom   41 type  2   force =    -0.00035123   -0.00003323    0.00015484
     atom   42 type  2   force =     0.00016183    0.00050678    0.00048241
     atom   43 type  1   force =     0.00022665   -0.00056635   -0.00052066
     atom   44 type  2   force =     0.00096912   -0.00099417    0.00015550
     atom   45 type  2   force =    -0.00069181   -0.00047186    0.00049297
     atom   46 type  1   force =     0.00006568    0.00003060    0.00047720
     atom   47 type  2   force =    -0.00015488   -0.00009255    0.00009058
     atom   48 type  2   force =     0.00017857    0.00002062   -0.00001144
     atom   49 type  1   force =     0.00060390    0.00034225   -0.00030006
     atom   50 type  2   force =    -0.00024383   -0.00014109    0.00049859
     atom   51 type  2   force =     0.00050940   -0.00012182    0.00047528
     atom   52 type  1   force =    -0.00072820   -0.00044082   -0.00145314
     atom   53 type  2   force =     0.00009864    0.00019868    0.00221098
     atom   54 type  2   force =    -0.00080161   -0.00031868    0.00029551
     atom   55 type  1   force =     0.00015756    0.00002400   -0.00002941
     atom   56 type  2   force =     0.00015771    0.00007004    0.00001545
     atom   57 type  2   force =    -0.00001255    0.00018842   -0.00009214
     atom   58 type  1   force =    -0.00004576    0.00022714   -0.00017150
     atom   59 type  2   force =    -0.00022204   -0.00028122    0.00013326
     atom   60 type  2   force =     0.00035834   -0.00011686    0.00000468
     atom   61 type  1   force =    -0.00034068    0.00053580   -0.00050142
     atom   62 type  2   force =    -0.00030487    0.00131234    0.00007709
     atom   63 type  2   force =    -0.00007596    0.00008147   -0.00047767
     atom   64 type  1   force =     0.00017460    0.00009234    0.00002542
     atom   65 type  2   force =     0.00009533    0.00004797   -0.00018689
     atom   66 type  2   force =     0.00016038   -0.00011471   -0.00009449
     atom   67 type  1   force =     0.00016945    0.00009622    0.00014877
     atom   68 type  2   force =    -0.00018305   -0.00010122   -0.00017086
     atom   69 type  2   force =     0.00007476    0.00039020    0.00001562
     atom   70 type  1   force =     0.00004334    0.00006234   -0.00143647
     atom   71 type  2   force =    -0.00100937   -0.00062022   -0.00053414
     atom   72 type  2   force =    -0.00006493   -0.00004530   -0.00040778
     atom   73 type  1   force =     0.00022057    0.00014015   -0.00001947
     atom   74 type  2   force =    -0.00000411    0.00026333   -0.00001906
     atom   75 type  2   force =     0.00014447    0.00021053    0.00006845
     atom   76 type  1   force =    -0.00029452   -0.00011209   -0.00002966
     atom   77 type  2   force =     0.00005836    0.00031874   -0.00011897
     atom   78 type  2   force =    -0.00040342    0.00025865    0.00029115
     atom   79 type  1   force =     0.00018231   -0.00037419   -0.00036414
     atom   80 type  2   force =     0.00000074    0.00000644   -0.00028765
     atom   81 type  2   force =    -0.00028245    0.00102939    0.00058026
     atom   82 type  1   force =     0.00009427    0.00016752   -0.00002059
     atom   83 type  2   force =     0.00033617   -0.00006225    0.00013143
     atom   84 type  2   force =     0.00014593    0.00007700    0.00024720
     atom   85 type  1   force =    -0.00006725   -0.00004452   -0.00006484
     atom   86 type  2   force =    -0.00008269   -0.00000506    0.00059660
     atom   87 type  2   force =    -0.00033279   -0.00021458    0.00012062
     atom   88 type  1   force =    -0.00002409   -0.00149470   -0.00020482
     atom   89 type  2   force =    -0.00069469    0.00026461    0.00145167
     atom   90 type  2   force =     0.00009684    0.00026001    0.00038607
     atom   91 type  1   force =     0.00020000   -0.00001695   -0.00001524
     atom   92 type  2   force =     0.00011990    0.00030347    0.00014124
     atom   93 type  2   force =     0.00025314    0.00000548    0.00007726
     atom   94 type  1   force =    -0.00006656   -0.00005005   -0.00005733
     atom   95 type  2   force =    -0.00003048   -0.00005016    0.00062028
     atom   96 type  2   force =     0.00004607   -0.00050817    0.00029641
     atom   97 type  1   force =    -0.00125864    0.00072285   -0.00038600
     atom   98 type  2   force =    -0.00013634   -0.00086575    0.00122456
     atom   99 type  2   force =     0.00060775   -0.00077096    0.00053910
     atom  100 type  1   force =     0.00023842    0.00010892   -0.00001228
     atom  101 type  2   force =     0.00023089   -0.00014328   -0.00001469
     atom  102 type  2   force =    -0.00007047   -0.00004805    0.00003177
     atom  103 type  1   force =    -0.00024881   -0.00020230   -0.00002050
     atom  104 type  2   force =     0.00030209   -0.00012541   -0.00012053
     atom  105 type  2   force =    -0.00011934   -0.00008068   -0.00048289
     atom  106 type  1   force =    -0.00025476    0.00034959   -0.00047430
     atom  107 type  2   force =    -0.00006952   -0.00002019   -0.00029102
     atom  108 type  2   force =    -0.00052147   -0.00035590   -0.00014311
     atom  109 type  1   force =     0.00022392    0.00012164    0.00007272
     atom  110 type  2   force =     0.00009827    0.00004866    0.00007219
     atom  111 type  2   force =    -0.00012486    0.00025233   -0.00001272
     atom  112 type  1   force =    -0.00002581   -0.00004877   -0.00013648
     atom  113 type  2   force =     0.00036355    0.00016094   -0.00094467
     atom  114 type  2   force =    -0.00023163    0.00022018   -0.00054035
     atom  115 type  1   force =     0.00057777    0.00040956    0.00039548
     atom  116 type  2   force =    -0.00001865   -0.00002745   -0.00046396
     atom  117 type  2   force =     0.00007589   -0.00018299   -0.00007668
     atom  118 type  1   force =     0.00012804    0.00009060    0.00046034
     atom  119 type  2   force =    -0.00010588    0.00010095    0.00002825
     atom  120 type  2   force =    -0.00000064    0.00002317    0.00011767
     atom  121 type  1   force =    -0.00055300    0.00041259    0.00002767
     atom  122 type  2   force =    -0.00005402   -0.00035116   -0.00016170
     atom  123 type  2   force =    -0.00028220    0.00000717    0.00041526
     atom  124 type  1   force =     0.00019668    0.00018389   -0.00012575
     atom  125 type  2   force =     0.00080140   -0.00025594   -0.00005467
     atom  126 type  2   force =    -0.00088360    0.00003583    0.00032010
     atom  127 type  1   force =     0.00000744   -0.00000443   -0.00005512
     atom  128 type  2   force =     0.00005453    0.00002397    0.00000492
     atom  129 type  2   force =     0.00002948   -0.00002404    0.00011607
     atom  130 type  1   force =     0.00005749    0.00002706   -0.00001178
     atom  131 type  2   force =     0.00026700    0.00014642    0.00032710
     atom  132 type  2   force =    -0.00014820   -0.00027956    0.00042539
     atom  133 type  1   force =     0.00094687    0.00050474    0.00093969
     atom  134 type  2   force =     0.00063519    0.00034042    0.00017206
     atom  135 type  2   force =    -0.00022752   -0.00072645    0.00034734
     atom  136 type  1   force =     0.00014958    0.00005288    0.00046506
     atom  137 type  2   force =     0.00004310   -0.00015035    0.00003423
     atom  138 type  2   force =     0.00016043   -0.00024394   -0.00000556
     atom  139 type  1   force =     0.00009667   -0.00071350    0.00003617
     atom  140 type  2   force =    -0.00029670    0.00009262   -0.00014574
     atom  141 type  2   force =     0.00009717   -0.00034176   -0.00051686
     atom  142 type  1   force =     0.00024307    0.00013766   -0.00017972
     atom  143 type  2   force =     0.00025111    0.00075642   -0.00007529
     atom  144 type  2   force =    -0.00012920    0.00014616   -0.00007039
     atom  145 type  3   force =    -0.00131960   -0.00038065    0.00064236

     Total force =     0.008311     Total SCF correction =     0.000616


     Computing stress (Cartesian axis) and pressure


     negative rho (up, down):  6.857E-03 0.000E+00
          total   stress  (Ry/bohr**3)                   (kbar)     P=       -7.73
  -0.00007861  -0.00000417  -0.00000316          -11.56       -0.61       -0.47
  -0.00000417  -0.00007375  -0.00000151           -0.61      -10.85       -0.22
  -0.00000316  -0.00000151  -0.00000521           -0.47       -0.22       -0.77

     Energy error            =      1.6E-04 Ry
     Gradient error          =      2.2E-03 Ry/Bohr

     number of scf cycles    =  43
     number of bfgs steps    =  42

     energy             old  =  -15893.7940828216 Ry
     energy             new  =  -15893.7942390923 Ry

     CASE: energy            _new < energy            _old

     new trust radius        =       0.0084562208 bohr
     new conv_thr            =       0.0000000016 Ry


ATOMIC_POSITIONS (angstrom)
Zr               0.0042601824        0.0036366998       10.0943374871
B                1.5942684490        0.9215281483       11.7826699866
B                0.0047188655        1.8391914925       11.7835729045
Zr               0.0070315190        0.0075122317       13.5516871827
B                1.5973097542        0.9288483978       15.3326468415
B                0.0176365482        1.8464596427       15.3445991912
Zr               0.0187186879        0.0026067878       17.1444478951
B                1.6272729655        0.8820717355       18.7951215396
B               -0.0076122520        1.8315703986       18.7671181302
Zr              -1.5851554480        2.7565951151       10.0943195261
B                0.0047873674        3.6746120237       11.7826726615
B               -1.5865735950        4.5914629468       11.7822234585
Zr              -1.5803285833        2.7569488311       13.5516550667
B                0.0128798489        3.6733481073       15.3327091707
B               -1.5845610816        4.5929491647       15.3251776869
Zr              -1.5782910465        2.7692349575       17.1445497462
B               -0.0124313264        3.7224085020       18.7956905647
B               -1.5762496361        4.6077156510       18.7782512819
Zr              -3.1781309180        5.5101089068       10.0948585257
B               -1.5871289806        6.4280671571       11.7832566166
B               -3.1788704782        7.3461526199       11.7806782093
Zr              -3.1809819857        5.5108229960       13.5506617624
B               -1.5891694921        6.4306344466       15.3228872718
B               -3.1824638930        7.3439153750       15.3267109339
Zr              -3.1785817722        5.5034730033       17.1386854067
B               -1.5856444434        6.4270991752       18.7726289189
B               -3.1808095212        7.3446159816       18.7741072641
Zr              -4.7685824976        8.2648527320       10.0948244144
B               -3.1780827202        9.1836521429       11.7832479096
B               -4.7683878276       10.1024671523       11.7822113163
Zr              -4.7693251768        8.2618877721       13.5506370553
B               -3.1767666591        9.1802691332       15.3228200413
B               -4.7659522653       10.1031726761       15.3251030636
Zr              -4.7745833244        8.2671073329       17.1390022235
B               -3.1779079711        9.1849261958       18.7722389923
B               -4.7487755276       10.1027311151       18.7781068475
Zr               3.1822064180        0.0021844612       10.0962024143
B                4.7741079173        0.9205913493       11.7821827753
B                3.1839738803        1.8393193121       11.7822489772
Zr               3.1844525326        0.0028574520       13.5515247289
B                4.7769523165        0.9221749772       15.3287591834
B                3.1831178582        1.8424764688       15.3308109391
Zr               3.1970687700       -0.0188847436       17.0859440171
B                4.7576359429        0.9128913918       18.7549333764
B                3.1908749478        1.7460686120       18.7614058976
Zr               1.5932024535        2.7563125738       10.0954059778
B                3.1842326003        3.6748898355       11.7822675548
B                1.5944737311        4.5924289695       11.7822522600
Zr               1.5957106332        2.7576855109       13.5529696182
B                3.1840813970        3.6746875419       15.3378319516
B                1.5970518031        4.5899240080       15.3310655336
Zr               1.6238016618        2.7736733254       17.2325873701
B                3.1621505928        3.6605765817       18.9382374533
B                1.5173675752        4.6441447785       18.7625422365
Zr               0.0025859441        5.5094824993       10.0962051008
B                1.5938974371        6.4288799154       11.7821958539
B                0.0035144736        7.3467851955       11.7806580803
Zr               0.0044579285        5.5109586981       13.5516458366
B                1.5970042331        6.4302455875       15.3292352780
B                0.0034913705        7.3535421406       15.3211480132
Zr              -0.0079368711        5.5322566616       17.0860304718
B                1.5789697197        6.4176768135       18.7561817092
B               -0.0094001458        7.3495571361       18.7678511238
Zr              -1.5885507585        8.2643229259       10.0965238495
B                0.0037876930        9.1836260256       11.7818225609
B               -1.5871234897       10.1018218606       11.7806516866
Zr              -1.5875892074        8.2647286684       13.5492400791
B                0.0070907442        9.1852314741       15.3272432123
B               -1.5811609008       10.0979572960       15.3208797182
Zr              -1.5967197919        8.2592082708       17.1251567914
B               -0.0109673174        9.1753207446       18.7682832825
B               -1.5903528588       10.0888138207       18.7671678856
Zr               6.3641741707        0.0010924047       10.0954322983
B                7.9553068349        0.9201291608       11.7795527891
B                6.3645017045        1.8384529467       11.7812629839
Zr               6.3659822010        0.0018890161       13.5483335107
B                7.9588073488        0.9155353260       15.3195326204
B                6.3662789919        1.8392044110       15.3277665247
Zr               6.3641754975        0.0077984634       17.1542233559
B                7.9769955776        0.9194479898       18.7654132463
B                6.3884536195        1.8515247437       18.7506293403
Zr               4.7735051444        2.7565069117       10.0955983202
B                6.3639043040        3.6746446480       11.7807786804
B                4.7739799711        4.5927460191       11.7819018874
Zr               4.7745268974        2.7586141814       13.5547716955
B                6.3660410302        3.6800521310       15.3287635821
B                4.7793488288        4.5957356721       15.3375727986
Zr               4.7867364559        2.7456308541       17.1283622204
B                6.4527491640        3.6294396131       18.7556109012
B                4.8124554885        4.6132238131       18.9397601494
Zr               3.1835102588        5.5104629902       10.0955904882
B                4.7738441163        6.4286956532       11.7807809396
B                3.1839836267        7.3472859624       11.7812687252
Zr               3.1859174091        5.5101787866       13.5548715281
B                4.7795759717        6.4275315201       15.3289794994
B                3.1856063420        7.3480816124       15.3281912647
Zr               3.1811435066        5.5266035540       17.1299640565
B                4.7797487140        6.5277488117       18.7569918142
B                3.2080278460        7.3609692064       18.7518382745
Zr               1.5926060698        8.2656789707       10.0953944566
B                3.1840842529        9.1841029795       11.7795608341
B                1.5939614174       10.1017271439       11.7811281251
Zr               1.5943248311        8.2666428141       13.5483983212
B                3.1819866258        9.1890292658       15.3197831046
B                1.5933044751       10.1010756452       15.3268901258
Zr               1.5986864014        8.2618898159       17.1557254202
B                3.1950444840        9.2028742028       18.7658986690
B                1.6196894325       10.1167282385       18.7665445535
Zr               9.5460401788        0.0028508920       10.0950476041
B               11.1366756638        0.9212122198       11.7804682155
B                9.5459268900        1.8382940368       11.7818440333
Zr               9.5481126781        0.0039410155       13.5495512161
B               11.1459341586        0.9264423830       15.3297977373
B                9.5529376385        1.8392811276       15.3224390479
Zr               9.5595334246        0.0102505604       17.1147230599
B               11.1407708402        0.9232616156       18.7752087779
B                9.5492279179        1.8383280979       18.7703083009
Zr               7.9554044294        2.7570444131       10.0940692080
B                9.5454342869        3.6742764560       11.7813445408
B                7.9535445832        4.5919241779       11.7812231837
Zr               7.9570271017        2.7568288885       13.5502338490
B                9.5479783007        3.6774994506       15.3241140895
B                7.9503859802        4.5962570915       15.3291622511
Zr               7.9721484868        2.7381812967       17.0859963206
B                9.5412905507        3.6638872230       18.7753103862
B                7.9817333909        4.5503196163       18.7898267667
Zr               6.3647467538        5.5111832155       10.0956981378
B                7.9531992871        6.4282496223       11.7828784619
B                6.3630479332        7.3467210292       11.7812178251
Zr               6.3640585128        5.5107139261       13.5510204177
B                7.9453481036        6.4235458546       15.3397480315
B                6.3653049196        7.3415657354       15.3291930474
Zr               6.3450704023        5.4995164713       17.2222659716
B                7.9726296241        6.4390349380       18.7644205016
B                6.3411440517        7.3912533863       18.7904205563
Zr               4.7749187839        8.2657749730       10.0940507486
B                6.3642831951        9.1841386420       11.7813397733
B                4.7745409532       10.1025527342       11.7818428938
Zr               4.7755629830        8.2671104126       13.5503339999
B                6.3684216317        9.1844652901       15.3241840791
B                4.7789862750       10.1078176185       15.3225023074
Zr               4.7672269062        8.2892232162       17.0859639488
B                6.3533426176        9.1852229093       18.7755109614
B                4.7764695056       10.1048164992       18.7706572418
O                3.9883539767        4.1367231940       20.0077021041



     Writing config-only to output data dir ./tmp/pwscf.save/ :
     XML data file
     NEW-OLD atomic charge density approx. for the potential

     negative rho (up, down):  6.857E-03 0.000E+00

     total cpu time spent up to now is      860.9 secs

     per-process dynamical memory:   510.3 Mb

     Self-consistent Calculation

     iteration #  1     ecut=    50.00 Ry     beta= 0.70
     Davidson diagonalization with overlap
     ethr =  1.00E-06,  avg # of iterations =  3.0

     Threshold (ethr) on eigenvalues was too large:
     Diagonalizing with lowered threshold

     Davidson diagonalization with overlap
     ethr =  2.93E-08,  avg # of iterations =  4.0

     negative rho (up, down):  6.860E-03 0.000E+00

     total cpu time spent up to now is      994.7 secs

     total energy              =  -15893.79432874 Ry
     estimated scf accuracy    <       0.00028301 Ry

     iteration #  2     ecut=    50.00 Ry     beta= 0.70
     Davidson diagonalization with overlap
     ethr =  3.25E-08,  avg # of iterations =  2.0

     negative rho (up, down):  6.872E-03 0.000E+00

     total cpu time spent up to now is     1052.2 secs

     total energy              =  -15893.79434340 Ry
     estimated scf accuracy    <       0.00003034 Ry

     iteration #  3     ecut=    50.00 Ry     beta= 0.70
     Davidson diagonalization with overlap
     ethr =  3.49E-09,  avg # of iterations =  4.0

     negative rho (up, down):  6.878E-03 0.000E+00

     total cpu time spent up to now is     1115.0 secs

     total energy              =  -15893.79434577 Ry
     estimated scf accuracy    <       0.00000532 Ry

     iteration #  4     ecut=    50.00 Ry     beta= 0.70
     Davidson diagonalization with overlap
     ethr =  6.11E-10,  avg # of iterations =  4.0

     negative rho (up, down):  6.883E-03 0.000E+00

     total cpu time spent up to now is     1181.2 secs

     total energy              =  -15893.79434652 Ry
     estimated scf accuracy    <       0.00000034 Ry

     iteration #  5     ecut=    50.00 Ry     beta= 0.70
     Davidson diagonalization with overlap
     ethr =  3.91E-11,  avg # of iterations =  4.5

     negative rho (up, down):  6.886E-03 0.000E+00

     total cpu time spent up to now is     1252.7 secs

     total energy              =  -15893.79434658 Ry
     estimated scf accuracy    <       0.00000010 Ry

     iteration #  6     ecut=    50.00 Ry     beta= 0.70
     Davidson diagonalization with overlap
     ethr =  1.15E-11,  avg # of iterations =  3.0

     negative rho (up, down):  6.887E-03 0.000E+00

     total cpu time spent up to now is     1312.7 secs

     total energy              =  -15893.79434659 Ry
     estimated scf accuracy    <       0.00000001 Ry

     iteration #  7     ecut=    50.00 Ry     beta= 0.70
     Davidson diagonalization with overlap
     ethr =  1.38E-12,  avg # of iterations =  4.0

     negative rho (up, down):  6.886E-03 0.000E+00

     total cpu time spent up to now is     1378.8 secs

     total energy              =  -15893.79434659 Ry
     estimated scf accuracy    <          5.8E-09 Ry

     iteration #  8     ecut=    50.00 Ry     beta= 0.70
     Davidson diagonalization with overlap
     ethr =  6.65E-13,  avg # of iterations =  2.0

     negative rho (up, down):  6.884E-03 0.000E+00

     total cpu time spent up to now is     1435.6 secs

     total energy              =  -15893.79434660 Ry
     estimated scf accuracy    <          2.5E-09 Ry

     iteration #  9     ecut=    50.00 Ry     beta= 0.70
     Davidson diagonalization with overlap
     ethr =  2.83E-13,  avg # of iterations =  4.0

     negative rho (up, down):  6.859E-03 0.000E+00

     total cpu time spent up to now is     1493.5 secs

     End of self-consistent calculation

          k = 0.0000 0.0000 0.0000 (162831 PWs)   bands (ev):

   -46.4156 -46.3658 -46.3654 -46.3634 -46.3625 -46.3606 -46.3597 -46.3157
   -46.3122 -46.3101 -46.3089 -46.3084 -46.3084 -46.3075 -46.3073 -46.3064
   -45.9829 -45.9308 -45.9283 -45.9275 -45.9274 -45.9261 -45.9255 -45.8764
   -45.8733 -45.8724 -45.8716 -45.8713 -45.8708 -45.8702 -45.8694 -45.8694
   -45.8343 -45.8217 -45.7400 -45.7259 -45.7157 -45.7009 -45.7001 -45.6955
   -45.6740 -45.6617 -45.6471 -45.6314 -45.6062 -45.6040 -45.6011 -45.5958
   -24.8354 -24.8353 -24.8350 -24.7466 -24.6841 -24.6841 -24.6839 -24.6834
   -24.6826 -24.6821 -24.6682 -24.6678 -24.6657 -24.6642 -24.6624 -24.6619
   -24.5793 -24.5761 -24.5730 -24.5725 -24.5719 -24.5703 -24.5700 -24.5690
   -24.5684 -24.5199 -24.5197 -24.5194 -24.4282 -24.4277 -24.4264 -24.4262
   -24.4256 -24.4248 -24.3618 -24.3616 -24.3603 -24.3603 -24.3600 -24.3579
   -24.3568 -24.3564 -24.3558 -24.3555 -24.3540 -24.3529 -24.3440 -24.3389
   -24.3346 -24.3211 -24.2485 -24.2456 -24.2449 -24.2434 -24.2420 -24.2411
   -24.1918 -24.1915 -24.1912 -24.1773 -24.1739 -24.1664 -24.1628 -24.1533
   -24.1498 -24.1477 -24.1461 -24.1424 -24.1418 -24.1409 -24.1392 -24.1387
   -24.1379 -24.1311 -24.1254 -24.0986 -24.0977 -24.0968 -24.0967 -24.0965
   -24.0959 -24.0955 -24.0932 -24.0911 -24.0906 -24.0906 -24.0902 -24.0833
   -24.0470 -24.0237 -24.0161 -24.0151 -24.0150 -24.0128 -24.0124 -24.0117
   -24.0099 -24.0001 -24.0001 -24.0000 -23.9939 -23.9650 -23.9375 -23.9332
   -23.9211 -23.9125 -23.9079 -23.9045 -23.9023 -23.8922 -23.8838 -23.8821
   -23.8805 -23.8765 -23.8740 -23.8547 -23.8330 -23.8327 -23.8322 -23.8281
   -23.8265 -23.8229 -23.8160 -23.7820 -23.7647 -23.7342 -23.7342 -23.7334
   -23.7329 -23.7329 -23.7324 -23.6321 -23.6315 -23.6312 -23.6134 -23.6131
   -23.5400 -23.5313 -23.5232 -23.5119 -23.5016 -23.4815 -23.4096 -23.4071
   -18.0327  -9.6702  -8.7977  -8.6306  -8.6276  -8.6222  -8.6216  -8.6207
    -8.6204  -8.0893  -8.0822  -8.0784  -8.0771  -8.0744  -8.0732  -7.4291
    -7.0176  -7.0173  -7.0164  -7.0163  -7.0150  -7.0148  -6.9845  -6.9844
    -6.9805  -6.9272  -6.8916  -6.8251  -6.8245  -6.8170  -6.8156  -6.8091
    -6.8058  -6.8035  -6.7778  -6.7713  -6.5481  -6.3390  -6.3385  -6.3220
    -5.9392  -5.9387  -5.9366  -5.7109  -5.5249  -5.5226  -5.4762  -5.4048
    -5.2991  -5.1462  -5.1101  -5.1080  -5.0730  -5.0145  -4.9129  -4.5811
    -4.5804  -4.5802  -4.5794  -4.5789  -4.5787  -4.2708  -4.2205  -4.2191
    -4.2151  -4.2134  -4.2119  -4.1748  -3.8499  -3.8294  -3.6674  -3.5045
    -3.2605  -3.0729  -3.0716  -3.0310  -2.9438  -2.8921  -2.8900  -2.8899
    -2.8896  -2.8882  -2.8881  -2.7250  -2.7219  -2.7201  -2.7192  -2.7186
    -2.7177  -2.5674  -2.4514  -2.4485  -2.4442  -2.4430  -2.4414  -2.4410
    -2.4396  -2.4360  -2.4227  -2.4204  -2.4106  -2.3749  -2.2576  -2.2091
    -2.1850  -2.1738  -2.1697  -2.1617  -2.1610  -2.1179  -1.9949  -1.7046
    -1.7021  -1.7018  -1.3066  -1.2991  -1.2926  -1.2925  -1.2804  -1.2763
    -1.2187  -1.1982  -1.1936  -1.1739  -1.0660  -1.0173  -0.9942  -0.9919
    -0.9859  -0.9547  -0.9512  -0.9441  -0.9291  -0.9039  -0.8431  -0.8225
    -0.7739  -0.7708  -0.7706  -0.7675  -0.7669  -0.7669  -0.7659  -0.7652
    -0.7572  -0.6114  -0.6110  -0.6107  -0.6098  -0.6093  -0.6090  -0.5703
    -0.4934  -0.4845  -0.2923  -0.2900  -0.2764  -0.2730  -0.2709  -0.2690
    -0.2655  -0.2592  -0.2565  -0.2536  -0.1247  -0.0824  -0.0144   0.0108
     0.0797   0.1103   0.1234   0.1453   0.1490   0.1552   0.1554   0.1616
     0.1633   0.1636   0.1703   0.1771   0.1827   0.1894   0.1934   0.1988
     0.2014   0.2034   0.2085   0.2930   0.3107   0.3617   0.5735   0.7286
     0.8288   0.8508   0.8581   0.8648   0.8770   0.9057   0.9130   0.9265
     0.9291   0.9389   0.9391   0.9476   0.9492   0.9503   0.9584   0.9677
     0.9723   1.0107   1.1253   1.1268   1.1270   1.1292   1.1303   1.1306
     1.3094   1.4971   1.6226   1.7134   1.8038   1.8241   1.8913   1.9055
     1.9058   1.9061   1.9079   1.9080   1.9083   1.9296   2.0466   2.0678
     2.1842   2.2072   2.2293   2.2309   2.2320   2.2322   2.2345   2.2355
     2.3381   2.4104   2.4545   2.4991   2.5100   2.5226   2.5252   2.5462
     2.5479   2.5560   2.5665   2.5676   2.6475   2.7436   3.1038   3.2468
     3.2473   3.2476   3.2932   3.2966   3.3864   3.5027   3.5878   3.6299
     3.6509   3.7656   3.8011   3.8212   3.8216   3.8240   3.8248   3.8288
     3.8294   3.8310   3.8323   3.8326   3.8441   3.8930   3.8971   3.9707
     4.1397   4.2604   4.2723   4.2881   4.2921   4.2997   4.6352   4.6802
     4.7122   4.7170   4.7206   4.7213   4.7215   4.7244   4.7269   4.7486
     4.7644   4.7766   4.7997   4.8549   4.8586   4.8701   4.8717   4.8798
     4.8970   4.9009   4.9043   4.9170   4.9210   4.9432   4.9535   4.9593
     4.9604   4.9623   4.9635   4.9657   5.1280   5.1819   5.1969   5.2315
     5.2412   5.2421   5.2467   5.2581   5.2644   5.2712   5.2746   5.2951
     5.3919   5.4975

          k = 0.0000-0.5774 0.0000 (163042 PWs)   bands (ev):

   -46.4013 -46.3992 -46.3749 -46.3729 -46.3385 -46.3381 -46.3354 -46.3345
   -46.3260 -46.3239 -46.3112 -46.3101 -46.3084 -46.3080 -46.2986 -46.2973
   -45.9679 -45.9656 -45.9398 -45.9384 -45.9011 -45.9010 -45.8989 -45.8985
   -45.8891 -45.8871 -45.8731 -45.8726 -45.8706 -45.8701 -45.8604 -45.8592
   -45.8332 -45.8225 -45.7395 -45.7254 -45.7199 -45.7131 -45.6921 -45.6788
   -45.6739 -45.6711 -45.6462 -45.6326 -45.6088 -45.6036 -45.5988 -45.5959
   -24.7732 -24.7727 -24.7703 -24.7702 -24.7239 -24.7234 -24.7223 -24.7213
   -24.6868 -24.6853 -24.6826 -24.6803 -24.6372 -24.6369 -24.6352 -24.6346
   -24.5969 -24.5951 -24.5768 -24.5760 -24.5741 -24.5736 -24.5732 -24.5728
   -24.5720 -24.5718 -24.5570 -24.5553 -24.4617 -24.4595 -24.4529 -24.4525
   -24.4502 -24.4496 -24.3985 -24.3960 -24.3608 -24.3607 -24.3278 -24.3257
   -24.3168 -24.3130 -24.2953 -24.2802 -24.2650 -24.2647 -24.2638 -24.2637
   -24.2631 -24.2628 -24.2622 -24.2621 -24.2618 -24.2618 -24.2413 -24.2380
   -24.2204 -24.1959 -24.1939 -24.1938 -24.1936 -24.1928 -24.1927 -24.1911
   -24.1909 -24.1893 -24.1733 -24.1704 -24.1687 -24.1651 -24.1628 -24.1506
   -24.1462 -24.1456 -24.1398 -24.1389 -24.1289 -24.1286 -24.1272 -24.1217
   -24.1210 -24.1188 -24.1122 -24.0963 -24.0931 -24.0909 -24.0760 -24.0740
   -24.0613 -24.0544 -24.0526 -24.0303 -24.0296 -24.0276 -24.0039 -24.0014
   -23.9840 -23.9812 -23.9580 -23.9507 -23.9440 -23.9427 -23.9357 -23.9275
   -23.9110 -23.9097 -23.9084 -23.9080 -23.9075 -23.9019 -23.8936 -23.8850
   -23.8743 -23.8690 -23.8352 -23.8349 -23.8336 -23.8329 -23.8111 -23.8046
   -23.8024 -23.7702 -23.7701 -23.7682 -23.7295 -23.7281 -23.7235 -23.7199
   -23.6861 -23.6824 -23.6625 -23.6609 -23.6514 -23.6415 -23.6112 -23.6098
   -23.5873 -23.5712 -23.5581 -23.5407 -23.5115 -23.4863 -23.4542 -23.4267
   -18.0327  -9.3905  -9.3900  -8.8699  -8.8642  -8.6012  -8.5964  -8.2448
    -8.2349  -7.9384  -7.9363  -7.9340  -7.9336  -7.6300  -7.6245  -7.6186
    -7.6178  -7.5431  -7.5420  -7.3736  -7.3667  -7.2991  -7.2416  -7.0234
    -6.9924  -6.9909  -6.9885  -6.9871  -6.8960  -6.6819  -6.6779  -6.6766
    -6.6760  -6.4003  -6.3840  -6.3651  -6.3619  -6.3245  -6.1619  -6.0399
    -5.9379  -5.8014  -5.8009  -5.6530  -5.5064  -5.4829  -5.4619  -5.4618
    -5.4246  -5.2275  -5.2253  -5.0938  -5.0553  -5.0503  -5.0484  -4.7506
    -4.6131  -4.6096  -4.5978  -4.5398  -4.5211  -4.4479  -4.4432  -4.2902
    -4.0184  -3.9821  -3.9800  -3.8409  -3.6969  -3.5623  -3.5617  -3.5612
    -3.5607  -3.4823  -3.4766  -3.3740  -3.3268  -3.2893  -3.2856  -3.2384
    -3.2234  -3.2214  -3.2149  -3.1722  -2.9458  -2.8373  -2.7203  -2.6495
    -2.6221  -2.6067  -2.4625  -2.2848  -2.1653  -2.1237  -2.1196  -2.1173
    -2.1161  -2.0511  -2.0070  -1.9534  -1.9357  -1.9160  -1.9148  -1.8857
    -1.7965  -1.7886  -1.7865  -1.7841  -1.7523  -1.7478  -1.7217  -1.6857
    -1.6460  -1.6427  -1.6377  -1.6331  -1.6085  -1.6014  -1.5492  -1.5387
    -1.4601  -1.4558  -1.2320  -1.2263  -1.1894  -1.1803  -1.1660  -1.1580
    -1.0894  -1.0591  -0.9034  -0.9001  -0.8728  -0.8572  -0.7984  -0.7963
    -0.7954  -0.7897  -0.7886  -0.7845  -0.7793  -0.7761  -0.7631  -0.7624
    -0.7570  -0.7410  -0.6996  -0.6919  -0.6487  -0.6469  -0.4701  -0.4663
    -0.4237  -0.4105  -0.4079  -0.4029  -0.3472  -0.3288  -0.2777  -0.2620
    -0.2487  -0.2406  -0.2341  -0.2262  -0.1570  -0.1433  -0.1250  -0.1154
    -0.1140  -0.0102   0.0028   0.0037   0.0686   0.0867   0.1137   0.1153
     0.1575   0.1642   0.1687   0.1729   0.2156   0.2579   0.2596   0.3706
     0.3960   0.3999   0.4187   0.4211   0.4312   0.4354   0.4458   0.4473
     0.4534   0.5332   0.6188   0.6315   0.6470   0.6538   0.6739   0.7066
     0.8095   0.8175   0.9182   0.9567   0.9847   1.0187   1.1734   1.1772
     1.2201   1.2271   1.2359   1.2383   1.2478   1.2536   1.2655   1.2858
     1.3760   1.3859   1.4538   1.4760   1.6703   1.7017   1.8036   1.8743
     1.9515   1.9539   2.0535   2.0601   2.0718   2.0921   2.1480   2.1830
     2.2098   2.2133   2.2245   2.2284   2.2925   2.3264   2.3625   2.3916
     2.3960   2.4057   2.4418   2.4994   2.5380   2.5479   2.5939   2.5945
     2.6087   2.6234   2.6932   2.6937   2.7286   2.8426   2.8958   2.8967
     2.8979   2.8989   3.1471   3.1552   3.1936   3.2044   3.2863   3.6222
     3.6487   3.6925   3.7039   3.7061   3.7235   3.7245   3.7289   3.7509
     3.8100   3.8169   3.8539   3.8956   3.9601   3.9624   3.9750   4.0134
     4.0341   4.0383   4.0424   4.2573   4.2899   4.3562   4.3596   4.4376
     4.4672   4.6527   4.7121   4.7135   4.7163   4.7378   4.7503   4.7540
     4.7939   4.8046   4.8346   4.8403   4.9066   4.9250   4.9549   4.9785
     5.1077   5.1422   5.1612   5.1640   5.1885   5.1908   5.1936   5.2116
     5.2271   5.2275   5.2657   5.2690   5.2831   5.2861   5.3116   5.3337
     5.3406   5.4453   5.4581   5.4665   5.4724   5.4839   5.5483   5.5602
     5.5697   5.6205

          k = 0.5000-0.2887 0.0000 (163042 PWs)   bands (ev):

   -46.4013 -46.3992 -46.3749 -46.3729 -46.3385 -46.3381 -46.3354 -46.3345
   -46.3260 -46.3239 -46.3112 -46.3101 -46.3084 -46.3080 -46.2986 -46.2973
   -45.9679 -45.9656 -45.9398 -45.9384 -45.9011 -45.9010 -45.8989 -45.8985
   -45.8892 -45.8871 -45.8732 -45.8726 -45.8706 -45.8700 -45.8604 -45.8592
   -45.8332 -45.8225 -45.7395 -45.7254 -45.7200 -45.7131 -45.6922 -45.6788
   -45.6740 -45.6711 -45.6462 -45.6325 -45.6088 -45.6037 -45.5987 -45.5959
   -24.7732 -24.7727 -24.7703 -24.7702 -24.7239 -24.7234 -24.7223 -24.7213
   -24.6868 -24.6853 -24.6826 -24.6803 -24.6372 -24.6369 -24.6352 -24.6346
   -24.5969 -24.5951 -24.5768 -24.5760 -24.5741 -24.5736 -24.5732 -24.5728
   -24.5720 -24.5718 -24.5570 -24.5553 -24.4617 -24.4595 -24.4530 -24.4525
   -24.4502 -24.4496 -24.3985 -24.3960 -24.3608 -24.3607 -24.3278 -24.3257
   -24.3168 -24.3130 -24.2953 -24.2803 -24.2650 -24.2647 -24.2638 -24.2638
   -24.2631 -24.2628 -24.2622 -24.2621 -24.2618 -24.2618 -24.2412 -24.2380
   -24.2204 -24.1959 -24.1939 -24.1938 -24.1936 -24.1928 -24.1927 -24.1911
   -24.1909 -24.1893 -24.1733 -24.1704 -24.1687 -24.1651 -24.1628 -24.1506
   -24.1462 -24.1456 -24.1398 -24.1389 -24.1289 -24.1286 -24.1272 -24.1218
   -24.1210 -24.1188 -24.1122 -24.0962 -24.0931 -24.0909 -24.0760 -24.0740
   -24.0613 -24.0544 -24.0526 -24.0304 -24.0296 -24.0276 -24.0038 -24.0015
   -23.9840 -23.9812 -23.9581 -23.9506 -23.9443 -23.9425 -23.9357 -23.9275
   -23.9110 -23.9097 -23.9084 -23.9080 -23.9075 -23.9019 -23.8935 -23.8850
   -23.8743 -23.8691 -23.8352 -23.8349 -23.8336 -23.8329 -23.8111 -23.8046
[...]
     atom   62 type  2   force =    -0.00029170   -0.00064825   -0.00008897
     atom   63 type  2   force =    -0.00024223    0.00026436   -0.00004147
     atom   64 type  1   force =     0.00011370    0.00005914   -0.00018811
     atom   65 type  2   force =    -0.00001861   -0.00001443   -0.00000723
     atom   66 type  2   force =     0.00006008    0.00005996   -0.00000749
     atom   67 type  1   force =    -0.00002239   -0.00000858   -0.00005654
     atom   68 type  2   force =     0.00013839    0.00009109   -0.00017142
     atom   69 type  2   force =    -0.00003713   -0.00021844   -0.00025320
     atom   70 type  1   force =    -0.00002904   -0.00001649   -0.00065226
     atom   71 type  2   force =    -0.00050689   -0.00032982   -0.00021340
     atom   72 type  2   force =     0.00008592   -0.00034466    0.00000825
     atom   73 type  1   force =     0.00000691    0.00009803   -0.00003899
     atom   74 type  2   force =    -0.00005696   -0.00005141    0.00006890
     atom   75 type  2   force =    -0.00006525   -0.00002343    0.00004513
     atom   76 type  1   force =     0.00019351    0.00013379   -0.00000836
     atom   77 type  2   force =    -0.00009857   -0.00004409   -0.00004219
     atom   78 type  2   force =     0.00015443    0.00003957    0.00001876
     atom   79 type  1   force =     0.00024886    0.00042820    0.00036304
     atom   80 type  2   force =    -0.00018318    0.00022437   -0.00006047
     atom   81 type  2   force =     0.00036504   -0.00014048    0.00046871
     atom   82 type  1   force =     0.00007093    0.00013240   -0.00004136
     atom   83 type  2   force =    -0.00013329    0.00015611    0.00013957
     atom   84 type  2   force =     0.00004615    0.00001530   -0.00007125
     atom   85 type  1   force =     0.00004412    0.00012354    0.00011663
     atom   86 type  2   force =    -0.00014022    0.00008328    0.00014187
     atom   87 type  2   force =     0.00005515    0.00002918    0.00008117
     atom   88 type  1   force =    -0.00037600    0.00067683    0.00069132
     atom   89 type  2   force =     0.00035966   -0.00014104    0.00028224
     atom   90 type  2   force =    -0.00069698   -0.00031124   -0.00001453
     atom   91 type  1   force =     0.00015689   -0.00001730   -0.00003995
     atom   92 type  2   force =     0.00007719   -0.00020517    0.00013904
     atom   93 type  2   force =    -0.00004401   -0.00005695    0.00004765
     atom   94 type  1   force =     0.00013404   -0.00003573    0.00010275
     atom   95 type  2   force =     0.00002554   -0.00018495    0.00011209
     atom   96 type  2   force =     0.00010155    0.00012597   -0.00001224
     atom   97 type  1   force =     0.00033518   -0.00061534    0.00057155
     atom   98 type  2   force =     0.00001133    0.00042952    0.00019675
     atom   99 type  2   force =     0.00009301    0.00043718    0.00036516
     atom  100 type  1   force =     0.00009717   -0.00005501   -0.00003484
     atom  101 type  2   force =    -0.00006506   -0.00003892    0.00006697
     atom  102 type  2   force =     0.00000666   -0.00000249   -0.00002988
     atom  103 type  1   force =     0.00022057    0.00009165   -0.00001747
     atom  104 type  2   force =    -0.00009172   -0.00004600   -0.00006831
     atom  105 type  2   force =     0.00017212    0.00011117   -0.00005902
     atom  106 type  1   force =     0.00050308   -0.00000612    0.00026535
     atom  107 type  2   force =     0.00010370   -0.00025237   -0.00009230
     atom  108 type  2   force =    -0.00034080   -0.00019508   -0.00028197
     atom  109 type  1   force =    -0.00000300   -0.00000902    0.00010693
     atom  110 type  2   force =     0.00008535    0.00003795   -0.00000115
     atom  111 type  2   force =     0.00004199    0.00007496    0.00005458
     atom  112 type  1   force =    -0.00000387    0.00000620   -0.00008245
     atom  113 type  2   force =    -0.00022395   -0.00012323   -0.00021824
     atom  114 type  2   force =     0.00015708   -0.00016766   -0.00010960
     atom  115 type  1   force =    -0.00040136   -0.00025862   -0.00008789
     atom  116 type  2   force =     0.00014767    0.00008807   -0.00021008
     atom  117 type  2   force =     0.00027632    0.00008942   -0.00026937
     atom  118 type  1   force =    -0.00006027    0.00015448    0.00000727
     atom  119 type  2   force =     0.00010859    0.00024387    0.00008551
     atom  120 type  2   force =     0.00010805    0.00017851    0.00008040
     atom  121 type  1   force =     0.00014441   -0.00007151    0.00001736
     atom  122 type  2   force =     0.00007790    0.00004550   -0.00002629
     atom  123 type  2   force =     0.00007129   -0.00003098    0.00004613
     atom  124 type  1   force =     0.00020901   -0.00026949   -0.00036689
     atom  125 type  2   force =    -0.00047001    0.00010062   -0.00014008
     atom  126 type  2   force =     0.00044178   -0.00047247    0.00039469
     atom  127 type  1   force =    -0.00000455   -0.00001198    0.00000422
     atom  128 type  2   force =     0.00007132    0.00003165   -0.00003225
     atom  129 type  2   force =     0.00021530   -0.00001064    0.00008201
     atom  130 type  1   force =    -0.00001974   -0.00002320    0.00021685
     atom  131 type  2   force =    -0.00012458   -0.00007654    0.00009231
     atom  132 type  2   force =     0.00003547    0.00007221    0.00005042
     atom  133 type  1   force =    -0.00073886   -0.00038517    0.00019998
     atom  134 type  2   force =     0.00016860    0.00010201   -0.00013128
     atom  135 type  2   force =    -0.00025412    0.00062536    0.00031500
     atom  136 type  1   force =     0.00011055   -0.00014269    0.00001456
     atom  137 type  2   force =     0.00027404   -0.00004382    0.00008497
     atom  138 type  2   force =     0.00009507   -0.00001719    0.00005353
     atom  139 type  1   force =     0.00001745    0.00016391    0.00001021
     atom  140 type  2   force =     0.00008482    0.00005180   -0.00004433
     atom  141 type  2   force =    -0.00006717    0.00024070   -0.00012975
     atom  142 type  1   force =    -0.00011667    0.00025672   -0.00030555
     atom  143 type  2   force =    -0.00015863   -0.00042418   -0.00015615
     atom  144 type  2   force =     0.00020386    0.00023019   -0.00031633
     atom  145 type  3   force =    -0.00019089   -0.00017774   -0.00007498

     Total force =     0.004373     Total SCF correction =     0.000045


     Computing stress (Cartesian axis) and pressure


     negative rho (up, down):  6.861E-03 0.000E+00
          total   stress  (Ry/bohr**3)                   (kbar)     P=       -7.71
  -0.00007865  -0.00000435  -0.00000206          -11.57       -0.64       -0.30
  -0.00000435  -0.00007360  -0.00000096           -0.64      -10.83       -0.14
  -0.00000206  -0.00000096  -0.00000492           -0.30       -0.14       -0.72

     Energy error            =      4.3E-05 Ry
     Gradient error          =      7.4E-04 Ry/Bohr

     bfgs converged in  46 scf cycles and  45 bfgs steps
     (criteria: energy <  1.0E-04 Ry, force <  1.0E-03 Ry/Bohr)

     End of BFGS Geometry Optimization

     Final energy             =  -15893.7944564996 Ry

     File ./tmp/pwscf.bfgs deleted, as requested
Begin final coordinates

ATOMIC_POSITIONS (angstrom)
Zr               0.0045526492        0.0038352330       10.0947158040
B                1.5948836573        0.9218155710       11.7825474073
B                0.0054079152        1.8395559707       11.7836735136
Zr               0.0076907055        0.0072800070       13.5514045868
B                1.5974721122        0.9290181995       15.3319150698
B                0.0179939336        1.8466230135       15.3430561211
Zr               0.0166881612        0.0032664699       17.1421034918
B                1.6250669850        0.8786926598       18.7944386544
B               -0.0084872132        1.8310828921       18.7658174654
Zr              -1.5847980315        2.7567037915       10.0947103619
B                0.0053743863        3.6749695877       11.7825551012
B               -1.5862957568        4.5922249819       11.7820646425
Zr              -1.5801231248        2.7575591008       13.5513831464
B                0.0131074362        3.6733585159       15.3319750688
B               -1.5847596734        4.5927115692       15.3240655333
Zr              -1.5788055690        2.7670768624       17.1421455121
B               -0.0165076227        3.7220681774       18.7947530739
B               -1.5769002149        4.6072364121       18.7765365929
Zr              -3.1778590406        5.5102626933       10.0947523528
B               -1.5866744163        6.4285894728       11.7825744946
B               -3.1781448793        7.3465538013       11.7802829008
Zr              -3.1807938200        5.5113647740       13.5506395207
B               -1.5895301833        6.4309329006       15.3218064629
B               -3.1826813956        7.3437729377       15.3265926146
Zr              -3.1780960190        5.5035094112       17.1391085674
B               -1.5856223318        6.4297006867       18.7703297938
B               -3.1790429150        7.3457422643       18.7730001689
Zr              -4.7683074362        8.2649678985       10.0947390923
B               -3.1773906494        9.1837488331       11.7825637580
B               -4.7675736166       10.1022829056       11.7820527712
Zr              -4.7687677586        8.2617171422       13.5506421954
B               -3.1766812490        9.1797959559       15.3217214760
B               -4.7662678108       10.1030662912       15.3239971207
Zr              -4.7741943925        8.2676322399       17.1392009915
B               -3.1757394973        9.1836994186       18.7699649069
B               -4.7494943004       10.1023934069       18.7765702596
Zr               3.1826322412        0.0026936776       10.0960237421
B                4.7746810361        0.9209664410       11.7820402181
B                3.1844864187        1.8396188956       11.7822106764
Zr               3.1847960598        0.0027833517       13.5510487967
B                4.7763449927        0.9222865369       15.3289655453
B                3.1830717961        1.8431335002       15.3317282066
Zr               3.1968951948       -0.0195244771       17.0850347676
B                4.7586354192        0.9098965590       18.7551874211
B                3.1892223391        1.7435543912       18.7626692254
Zr               1.5935542589        2.7564907025       10.0961097002
B                3.1844391908        3.6749859359       11.7825299642
B                1.5950165141        4.5926929575       11.7822376678
Zr               1.5968104785        2.7582883372       13.5523374556
B                3.1836042391        3.6743628585       15.3393525295
B                1.5975559757        4.5894953893       15.3319470483
Zr               1.6218119576        2.7724537216       17.2316893479
B                3.1605958686        3.6602420603       18.9431741006
B                1.5142496485        4.6440246732       18.7630810386
Zr               0.0032658605        5.5095690184       10.0960274439
B                1.5945369644        6.4291483927       11.7820821083
B                0.0038963993        7.3473000965       11.7801394356
Zr               0.0045608041        5.5112693689       13.5511626945
B                1.5967552967        6.4296678065       15.3293716195
B                0.0040568067        7.3534251463       15.3203670891
Zr              -0.0085500138        5.5326154175       17.0852136515
B                1.5772039717        6.4201205358       18.7560625561
B               -0.0100159574        7.3502643096       18.7659503930
Zr              -1.5878836531        8.2646826513       10.0961613197
B                0.0043366601        9.1839210104       11.7812351513
B               -1.5864725759       10.1018623904       11.7801214491
Zr              -1.5871130937        8.2650013195       13.5489449897
B                0.0071916706        9.1853283298       15.3261886503
B               -1.5809831732       10.0985860343       15.3201314431
Zr              -1.5961126754        8.2597020413       17.1205869297
B               -0.0128043428        9.1741591454       18.7656097937
B               -1.5903422550       10.0881327136       18.7654621628
Zr               6.3650663667        0.0017509032       10.0952843748
B                7.9555828362        0.9207513727       11.7797504597
B                6.3649721417        1.8389852882       11.7815148509
Zr               6.3658795309        0.0020807912       13.5481379284
B                7.9586398663        0.9164487656       15.3192961225
B                6.3655779482        1.8398249976       15.3286949924
Zr               6.3650563984        0.0074761382       17.1530848546
B                7.9767932837        0.9187939162       18.7646954317
B                6.3873449791        1.8523040112       18.7523179372
Zr               4.7739902893        2.7570834822       10.0956617008
B                6.3645186754        3.6748451558       11.7812672646
B                4.7744850055        4.5930039098       11.7825691223
Zr               4.7745116432        2.7588359598       13.5550653967
B                6.3654641286        3.6801479767       15.3309015337
B                4.7786185510        4.5952334125       15.3390733253
Zr               4.7856341053        2.7435557533       17.1292556329
B                6.4505653807        3.6298592611       18.7599577641
B                4.8118435819        4.6135313651       18.9438658469
Zr               3.1842781985        5.5105454691       10.0956721227
B                4.7743490819        6.4290664734       11.7812961844
B                3.1846915985        7.3473732470       11.7815512067
Zr               3.1861315571        5.5099969300       13.5551788195
B                4.7794751768        6.4269694215       15.3311633189
B                3.1858552726        7.3471193888       15.3291196104
Zr               3.1788172763        5.5267002513       17.1301029268
B                4.7790921900        6.5254175867       18.7606104500
B                3.2077415840        7.3593637928       18.7532596999
Zr               1.5936515763        8.2660751445       10.0952809882
B                3.1847859556        9.1839790398       11.7797772454
B                1.5942863657       10.1018866117       11.7811228117
Zr               1.5944500613        8.2664291625       13.5482269916
B                3.1827190901        9.1883825018       15.3195620484
B                1.5935943401       10.1012283748       15.3255126202
Zr               1.5987682656        8.2628445874       17.1541086595
B                3.1941307937        9.2029670990       18.7651495127
B                1.6191895950       10.1162859998       18.7658566574
Zr               9.5468360926        0.0032720244       10.0952771638
B               11.1370660656        0.9213983196       11.7807765705
B                9.5459145881        1.8389214745       11.7821683482
Zr               9.5481212963        0.0038662845       13.5493936524
B               11.1463179100        0.9265309055       15.3272456068
B                9.5521412537        1.8398667045       15.3212511525
Zr               9.5604069145        0.0108507011       17.1141360383
B               11.1407367786        0.9231537188       18.7742888716
B                9.5499311155        1.8377847299       18.7696663496
Zr               7.9559463508        2.7574360660       10.0948545778
B                9.5454605423        3.6747429641       11.7816254092
B                7.9537632781        4.5922220963       11.7816259022
Zr               7.9560679212        2.7577331765       13.5504393846
B                9.5473937072        3.6772362570       15.3238507522
B                7.9497253539        4.5963902176       15.3305533768
Zr               7.9723875240        2.7384490935       17.0877655283
B                9.5429491478        3.6639330644       18.7752469023
B                7.9808854935        4.5509193192       18.7913060359
Zr               6.3649482132        5.5112701533       10.0957537609
B                7.9534669595        6.4283749239       11.7828686529
B                6.3634418746        7.3467112663       11.7816281319
Zr               6.3640679566        5.5106817529       13.5517063603
B                7.9456410652        6.4236851719       15.3407179326
B                6.3650986796        7.3408374127       15.3306269055
Zr               6.3453404511        5.4995501557       17.2247198912
B                7.9740565579        6.4398826334       18.7654923644
B                6.3416943634        7.3901577897       18.7918744049
Zr               4.7755502285        8.2659946206       10.0948505138
B                6.3647227432        9.1838768704       11.7816379482
B                4.7751054943       10.1021692468       11.7821851074
Zr               4.7759136270        8.2657519971       13.5505594985
B                6.3679562283        9.1839810129       15.3239679132
B                4.7791674904       10.1067227884       15.3213856551
Zr               4.7675414707        8.2892733667       17.0879725026
B                6.3544474228        9.1865166480       18.7754333653
B                4.7763289433       10.1056666392       18.7700935821
O                3.9850057866        4.1367921987       20.0116171406
End final coordinates



     Writing all to output data dir ./tmp/pwscf.save/ :
     XML data file, charge density, pseudopotentials, collected wavefunctions

     init_run     :     38.62s CPU     41.48s WALL (       1 calls)
     electrons    :   2285.85s CPU   2477.68s WALL (       4 calls)
     update_pot   :      2.94s CPU      3.10s WALL (       3 calls)
     forces       :     64.64s CPU     69.62s WALL (       4 calls)
     stress       :    249.37s CPU    254.53s WALL (       4 calls)

     Called by init_run:
     wfcinit      :     32.34s CPU     34.51s WALL (       1 calls)
     potinit      :      1.53s CPU      1.82s WALL (       1 calls)
     hinit0       :      1.73s CPU      1.83s WALL (       1 calls)

     Called by electrons:
     c_bands      :   2001.12s CPU   2142.66s WALL (      37 calls)
     sum_band     :    194.49s CPU    222.20s WALL (      37 calls)
     v_of_rho     :     15.22s CPU     16.53s WALL (      38 calls)
     newd         :     23.98s CPU     33.04s WALL (      38 calls)
     PAW_pot      :     13.17s CPU     13.28s WALL (      41 calls)
     mix_rho      :     41.40s CPU     53.42s WALL (      37 calls)

     Called by c_bands:
     init_us_2    :     33.93s CPU     34.55s WALL (     172 calls)
     cegterg      :   1961.20s CPU   2092.70s WALL (      74 calls)

     Called by *egterg:
     cdiaghg      :     46.94s CPU     50.20s WALL (     345 calls)
     h_psi        :   1049.80s CPU   1142.33s WALL (     359 calls)
     s_psi        :    207.90s CPU    209.07s WALL (     359 calls)
     g_psi        :      8.34s CPU      8.63s WALL (     283 calls)

     Called by h_psi:
     h_psi:calbec :    223.15s CPU    226.00s WALL (     359 calls)
     vloc_psi     :    607.75s CPU    688.20s WALL (     359 calls)
     add_vuspsi   :    209.50s CPU    210.76s WALL (     359 calls)

     General routines
     calbec       :    467.58s CPU    473.62s WALL (     575 calls)
     fft          :     18.43s CPU     20.86s WALL (     592 calls)
     ffts         :     10.73s CPU     22.40s WALL (    3765 calls)
     fftw         :    418.07s CPU    504.25s WALL (  234624 calls)
     interpolate  :      1.88s CPU      2.09s WALL (      38 calls)

     Parallel routines

     PWSCF        :   2656.70s CPU   2871.42s WALL


   This run was terminated on:   8:11: 3  18Nov2025            

=------------------------------------------------------------------------------=
   JOB DONE.
=------------------------------------------------------------------------------=
