
     Program PWSCF v.7.4 starts on 10Jun2025 at 14: 2: 5 

     This program is part of the open-source Quantum ESPRESSO suite
     for quantum simulation of materials; please cite
         "P. Giannozzi et al., J. Phys.:Condens. Matter 21 395502 (2009);
         "P. Giannozzi et al., J. Phys.:Condens. Matter 29 465901 (2017);
         "P. Giannozzi et al., J. Chem. Phys. 152 154105 (2020);
          URL http://www.quantum-espresso.org", 
     in publications or presentations arising from this work. More details at
     http://www.quantum-espresso.org/quote

     Parallel version (MPI & OpenMP), running on       4 processor cores
     Number of MPI processes:                 1
     Threads/MPI process:                     4

     MPI processes distributed on     1 nodes
     53794 MiB available memory on the printing compute node when the environment starts

     Reading input from qe.in

     Current dimensions of program PWSCF are:
     Max number of different atomic species (ntypx) = 10
     Max number of k-points (npk) =  40000
     Max angular momentum in pseudopotentials (lmaxx) =  4
     file Zr.pbe-spn-kjpaw_psl.1.0.0.UPF: wavefunction(s)  4S 4P renormalized

     Subspace diagonalization in iterative solution of the eigenvalue problem:
     a serial algorithm will be used


     G-vector sticks info
     --------------------
     sticks:   dense  smooth     PW     G-vecs:    dense   smooth      PW
     Sum        1123     499    163                33819     9997    1967

     Using Slab Decomposition



     bravais-lattice index     =            4
     lattice parameter (alat)  =       6.0093  a.u.
     unit-cell volume          =     209.5066 (a.u.)^3
     number of atoms/cell      =            3
     number of atomic types    =            2
     number of electrons       =        18.00
     number of Kohn-Sham states=           13
     kinetic-energy cutoff     =      50.0000  Ry
     charge density cutoff     =     450.0000  Ry
     scf convergence threshold =      1.0E-08
     mixing beta               =       0.7000
     number of iterations used =            8  plain     mixing
     Exchange-correlation= SLA  PW   PBX  PBC
                           (   1   4   3   4   0   0   0)

     celldm(1)=   6.009329  celldm(2)=   0.000000  celldm(3)=   1.114780
     celldm(4)=   0.000000  celldm(5)=   0.000000  celldm(6)=   0.000000

     crystal axes: (cart. coord. in units of alat)
               a(1) = (   1.000000   0.000000   0.000000 )  
               a(2) = (  -0.500000   0.866025   0.000000 )  
               a(3) = (   0.000000   0.000000   1.114780 )  

     reciprocal axes: (cart. coord. in units 2 pi/alat)
               b(1) = (  1.000000  0.577350 -0.000000 )  
               b(2) = (  0.000000  1.154701  0.000000 )  
               b(3) = (  0.000000 -0.000000  0.897038 )  


     PseudoPot. # 1 for Zr read from file:
     /home/cganley2/qe-projects/common/pseudopotentials/SSSP_1.3.0_PBE_precision/Zr.pbe-spn-kjpaw_psl.1.0.0.UPF
     MD5 check sum: 83bf7718257ce689f169bc8534fef73a
     Pseudo is Projector augmented-wave + core cor, Zval = 12.0
     Generated using &quot;atomic&quot; code by A. Dal Corso  v.6.2.2
     Shape of augmentation charge: PSQ
     Using radial grid of 1225 points,  6 beta functions with: 
                l(1) =   0
                l(2) =   0
                l(3) =   1
                l(4) =   1
                l(5) =   2
                l(6) =   2
     Q(r) pseudized with 0 coefficients 


     PseudoPot. # 2 for B  read from file:
     /home/cganley2/qe-projects/common/pseudopotentials/SSSP_1.3.0_PBE_precision/B.pbe-n-kjpaw_psl.1.0.0.UPF
     MD5 check sum: 757e44352cacacece234d5873ff275d1
     Pseudo is Projector augmented-wave + core cor, Zval =  3.0
     Generated using &quot;atomic&quot; code by A. Dal Corso  v.6.3
     Shape of augmentation charge: PSQ
     Using radial grid of 1059 points,  4 beta functions with: 
                l(1) =   0
                l(2) =   0
                l(3) =   1
                l(4) =   1
     Q(r) pseudized with 0 coefficients 


     atomic species   valence    mass     pseudopotential
     Zr               12.00    91.22400     Zr( 1.00)
     B                 3.00    10.81000     B ( 1.00)

     No symmetry found



   Cartesian axes

     site n.     atom                  positions (alat units)
         1        Zr     tau(   1) = (   0.0000000   0.0000000   0.0000000  )
         2        B      tau(   2) = (   0.5000000   0.2886751   0.5573899  )
         3        B      tau(   3) = (  -0.0000000   0.5773503   0.5573899  )

     number of k points=    36  Gaussian smearing, width (Ry)=  0.0100
                       cart. coord. in units 2pi/alat
        k(    1) = (   0.0000000   0.0000000   0.0000000), wk =   0.0312500
        k(    2) = (   0.0000000   0.0000000   0.2242595), wk =   0.0625000
        k(    3) = (   0.0000000   0.0000000  -0.4485190), wk =   0.0312500
        k(    4) = (   0.0000000   0.2886751   0.0000000), wk =   0.0625000
        k(    5) = (   0.0000000   0.2886751   0.2242595), wk =   0.0625000
        k(    6) = (   0.0000000   0.2886751  -0.4485190), wk =   0.0625000
        k(    7) = (   0.0000000   0.2886751  -0.2242595), wk =   0.0625000
        k(    8) = (   0.0000000  -0.5773503   0.0000000), wk =   0.0312500
        k(    9) = (   0.0000000  -0.5773503   0.2242595), wk =   0.0625000
        k(   10) = (   0.0000000  -0.5773503  -0.4485190), wk =   0.0312500
        k(   11) = (   0.2500000   0.1443376   0.0000000), wk =   0.0625000
        k(   12) = (   0.2500000   0.1443376   0.2242595), wk =   0.0625000
        k(   13) = (   0.2500000   0.1443376  -0.4485190), wk =   0.0625000
        k(   14) = (   0.2500000   0.1443376  -0.2242595), wk =   0.0625000
        k(   15) = (   0.2500000   0.4330127   0.0000000), wk =   0.0625000
        k(   16) = (   0.2500000   0.4330127   0.2242595), wk =   0.0625000
        k(   17) = (   0.2500000   0.4330127  -0.4485190), wk =   0.0625000
        k(   18) = (   0.2500000   0.4330127  -0.2242595), wk =   0.0625000
        k(   19) = (   0.2500000  -0.4330127   0.0000000), wk =   0.0625000
        k(   20) = (   0.2500000  -0.4330127   0.2242595), wk =   0.0625000
        k(   21) = (   0.2500000  -0.4330127  -0.4485190), wk =   0.0625000
        k(   22) = (   0.2500000  -0.4330127  -0.2242595), wk =   0.0625000
        k(   23) = (   0.2500000  -0.1443376   0.0000000), wk =   0.0625000
        k(   24) = (   0.2500000  -0.1443376   0.2242595), wk =   0.0625000
        k(   25) = (   0.2500000  -0.1443376  -0.4485190), wk =   0.0625000
        k(   26) = (   0.2500000  -0.1443376  -0.2242595), wk =   0.0625000
        k(   27) = (  -0.5000000  -0.2886751   0.0000000), wk =   0.0312500
        k(   28) = (  -0.5000000  -0.2886751   0.2242595), wk =   0.0625000
        k(   29) = (  -0.5000000  -0.2886751  -0.4485190), wk =   0.0312500
        k(   30) = (  -0.5000000   0.0000000   0.0000000), wk =   0.0625000
        k(   31) = (  -0.5000000   0.0000000   0.2242595), wk =   0.0625000
        k(   32) = (  -0.5000000   0.0000000  -0.4485190), wk =   0.0625000
        k(   33) = (  -0.5000000   0.0000000  -0.2242595), wk =   0.0625000
        k(   34) = (  -0.5000000  -0.8660254   0.0000000), wk =   0.0312500
        k(   35) = (  -0.5000000  -0.8660254   0.2242595), wk =   0.0625000
        k(   36) = (  -0.5000000  -0.8660254  -0.4485190), wk =   0.0312500

     Dense  grid:    33819 G-vectors     FFT dimensions: (  45,  45,  45)

     Smooth grid:     9997 G-vectors     FFT dimensions: (  27,  27,  32)

     Estimated max dynamical RAM per process >     138.13 MB

     Initial potential from superposition of free atoms

     starting charge      17.9973, renormalised to      18.0000
     Starting wfcs are   21 randomized atomic wfcs
     Checking if some PAW data can be deallocated... 

     total cpu time spent up to now is        1.7 secs

     per-process dynamical memory:   207.5 Mb

     Self-consistent Calculation

     iteration #  1     ecut=    50.00 Ry     beta= 0.70
     Davidson diagonalization with overlap
     ethr =  1.00E-02,  avg # of iterations =  2.0

     total cpu time spent up to now is        2.4 secs

     total energy              =    -330.23211075 Ry
     estimated scf accuracy    <       0.27011746 Ry

     iteration #  2     ecut=    50.00 Ry     beta= 0.70
     Davidson diagonalization with overlap
     ethr =  1.50E-03,  avg # of iterations =  3.5

     total cpu time spent up to now is        3.1 secs

     total energy              =    -330.27758679 Ry
     estimated scf accuracy    <       0.31040289 Ry

     iteration #  3     ecut=    50.00 Ry     beta= 0.70
     Davidson diagonalization with overlap
     ethr =  1.50E-03,  avg # of iterations =  2.1

     total cpu time spent up to now is        3.7 secs

     total energy              =    -330.35148214 Ry
     estimated scf accuracy    <       0.00200917 Ry

     iteration #  4     ecut=    50.00 Ry     beta= 0.70
     Davidson diagonalization with overlap
     ethr =  1.12E-05,  avg # of iterations =  5.2

     total cpu time spent up to now is        4.4 secs

     total energy              =    -330.35200386 Ry
     estimated scf accuracy    <       0.00069971 Ry

     iteration #  5     ecut=    50.00 Ry     beta= 0.70
     Davidson diagonalization with overlap
     ethr =  3.89E-06,  avg # of iterations =  2.2

     total cpu time spent up to now is        5.0 secs

     total energy              =    -330.35214900 Ry
     estimated scf accuracy    <       0.00000124 Ry

     iteration #  6     ecut=    50.00 Ry     beta= 0.70
     Davidson diagonalization with overlap
     ethr =  6.91E-09,  avg # of iterations =  4.2

     total cpu time spent up to now is        5.8 secs

     total energy              =    -330.35215034 Ry
     estimated scf accuracy    <       0.00000409 Ry

     iteration #  7     ecut=    50.00 Ry     beta= 0.70
     Davidson diagonalization with overlap
     ethr =  6.91E-09,  avg # of iterations =  2.7

     total cpu time spent up to now is        6.4 secs

     total energy              =    -330.35215102 Ry
     estimated scf accuracy    <       0.00000005 Ry

     iteration #  8     ecut=    50.00 Ry     beta= 0.70
     Davidson diagonalization with overlap
     ethr =  2.62E-10,  avg # of iterations =  3.5

     total cpu time spent up to now is        7.1 secs

     End of self-consistent calculation

          k = 0.0000 0.0000 0.0000 (  1263 PWs)   bands (ev):

   -32.9963 -11.1537 -10.6520 -10.6520   3.0396  13.1057  13.1057  13.1261
    13.3711  19.0503  19.0503  19.8165  19.8167

          k = 0.0000 0.0000 0.2243 (  1239 PWs)   bands (ev):

   -32.9870 -11.3306 -10.6397 -10.6397   3.8681  10.5228  13.6789  13.6789
    15.7855  17.0030  17.0030  18.2920  18.2920

          k = 0.0000 0.0000-0.4485 (  1240 PWs)   bands (ev):

   -32.9779 -11.5001 -10.6274 -10.6274   5.0375   8.7617  14.7878  14.7878
    16.0440  16.0440  16.4404  16.4404  17.5042

          k = 0.0000 0.2887 0.0000 (  1246 PWs)   bands (ev):

   -32.9406 -11.1213 -11.0706 -10.7563   4.1977  10.5674  12.4631  13.0038
    13.7028  17.8355  18.4674  19.1214  19.3356

          k = 0.0000 0.2887 0.2243 (  1248 PWs)   bands (ev):

   -32.9319 -11.2326 -11.0970 -10.7412   4.7396  10.3476  11.7456  12.6143
    14.1670  17.0484  17.7288  20.4022  20.6263

          k = 0.0000 0.2887-0.4485 (  1248 PWs)   bands (ev):

   -32.9231 -11.3848 -11.0765 -10.7260   5.3097  10.3197  11.0171  12.2269
    14.1167  18.0939  18.3616  18.3712  19.8254

          k = 0.0000 0.2887-0.2243 (  1248 PWs)   bands (ev):

   -32.9319 -11.2326 -11.0970 -10.7412   4.7396  10.3476  11.7456  12.6143
    14.1670  17.0484  17.7288  20.4022  20.6263

          k = 0.0000-0.5774 0.0000 (  1262 PWs)   bands (ev):

   -32.8844 -11.5571 -10.9860 -10.8583   6.8061   7.2229  11.8483  12.6934
    13.0403  17.9549  17.9765  20.5306  20.6254

          k = 0.0000-0.5774 0.2243 (  1268 PWs)   bands (ev):

   -32.8760 -11.5271 -11.1282 -10.8404   6.4419   7.5992  11.7984  12.7205
    12.8579  17.2433  19.8340  20.7017  21.9052

          k = 0.0000-0.5774-0.4485 (  1236 PWs)   bands (ev):

   -32.8675 -11.4966 -11.2660 -10.8223   5.8499   8.7492  11.1527  11.5890
    13.6762  19.3915  19.7895  20.8898  21.8466

          k = 0.2500 0.1443 0.0000 (  1246 PWs)   bands (ev):

   -32.9406 -11.1213 -11.0706 -10.7563   4.1977  10.5674  12.4631  13.0038
    13.7028  17.8355  18.4674  19.1214  19.3356

          k = 0.2500 0.1443 0.2243 (  1248 PWs)   bands (ev):

   -32.9319 -11.2326 -11.0970 -10.7412   4.7396  10.3476  11.7456  12.6143
    14.1670  17.0484  17.7288  20.4022  20.6263

          k = 0.2500 0.1443-0.4485 (  1248 PWs)   bands (ev):

   -32.9231 -11.3848 -11.0765 -10.7260   5.3097  10.3197  11.0171  12.2269
    14.1167  18.0939  18.3616  18.3712  19.8254

          k = 0.2500 0.1443-0.2243 (  1248 PWs)   bands (ev):

   -32.9319 -11.2326 -11.0970 -10.7412   4.7396  10.3476  11.7456  12.6143
    14.1670  17.0484  17.7288  20.4022  20.6263

          k = 0.2500 0.4330 0.0000 (  1245 PWs)   bands (ev):

   -32.8844 -11.3901 -11.0424 -10.9862   6.1966   8.9198  10.2160  12.3739
    14.9914  16.1329  16.6840  20.7466  22.9531

          k = 0.2500 0.4330 0.2243 (  1255 PWs)   bands (ev):

   -32.8760 -11.3630 -11.1282 -11.0211   6.1888   8.7079  10.2648  12.6549
    13.5393  17.5024  19.5630  20.3977  21.8686

          k = 0.2500 0.4330-0.4485 (  1248 PWs)   bands (ev):

   -32.8676 -11.3350 -11.2665 -10.9996   6.0260   8.4720  11.0212  12.4110
    13.0030  19.2568  20.6459  20.8710  21.8218

          k = 0.2500 0.4330-0.2243 (  1255 PWs)   bands (ev):

   -32.8760 -11.3630 -11.1282 -11.0211   6.1888   8.7079  10.2648  12.6549
    13.5393  17.5024  19.5630  20.3977  21.8686

          k = 0.2500-0.4330 0.0000 (  1245 PWs)   bands (ev):

   -32.8844 -11.3901 -11.0424 -10.9862   6.1966   8.9198  10.2160  12.3739
    14.9914  16.1329  16.6840  20.7466  22.9531

          k = 0.2500-0.4330 0.2243 (  1255 PWs)   bands (ev):

   -32.8760 -11.3630 -11.1282 -11.0211   6.1888   8.7079  10.2648  12.6549
    13.5393  17.5024  19.5630  20.3977  21.8686

          k = 0.2500-0.4330-0.4485 (  1248 PWs)   bands (ev):

   -32.8676 -11.3350 -11.2665 -10.9996   6.0260   8.4720  11.0212  12.4110
    13.0030  19.2568  20.6459  20.8710  21.8218

          k = 0.2500-0.4330-0.2243 (  1255 PWs)   bands (ev):

   -32.8760 -11.3630 -11.1282 -11.0211   6.1888   8.7079  10.2648  12.6549
    13.5393  17.5024  19.5630  20.3977  21.8686

          k = 0.2500-0.1443 0.0000 (  1246 PWs)   bands (ev):

   -32.9406 -11.1213 -11.0706 -10.7563   4.1977  10.5674  12.4631  13.0038
    13.7028  17.8355  18.4674  19.1214  19.3356

          k = 0.2500-0.1443 0.2243 (  1248 PWs)   bands (ev):

   -32.9319 -11.2326 -11.0970 -10.7412   4.7396  10.3476  11.7456  12.6143
    14.1670  17.0484  17.7288  20.4022  20.6263

          k = 0.2500-0.1443-0.4485 (  1248 PWs)   bands (ev):

   -32.9231 -11.3848 -11.0765 -10.7260   5.3097  10.3197  11.0171  12.2269
    14.1167  18.0939  18.3616  18.3712  19.8254

          k = 0.2500-0.1443-0.2243 (  1248 PWs)   bands (ev):

   -32.9319 -11.2326 -11.0970 -10.7412   4.7396  10.3476  11.7456  12.6143
    14.1670  17.0484  17.7288  20.4022  20.6263

          k =-0.5000-0.2887 0.0000 (  1262 PWs)   bands (ev):

   -32.8844 -11.5571 -10.9860 -10.8583   6.8061   7.2229  11.8483  12.6934
    13.0403  17.9549  17.9765  20.5306  20.6254

          k =-0.5000-0.2887 0.2243 (  1268 PWs)   bands (ev):

   -32.8760 -11.5271 -11.1282 -10.8404   6.4419   7.5992  11.7984  12.7205
    12.8579  17.2433  19.8340  20.7017  21.9051

          k =-0.5000-0.2887-0.4485 (  1236 PWs)   bands (ev):

   -32.8675 -11.4966 -11.2660 -10.8223   5.8499   8.7492  11.1527  11.5890
    13.6762  19.3915  19.7895  20.8898  21.8466

          k =-0.5000 0.0000 0.0000 (  1245 PWs)   bands (ev):

   -32.8844 -11.3901 -11.0424 -10.9862   6.1966   8.9198  10.2160  12.3739
    14.9914  16.1329  16.6840  20.7466  22.9531

          k =-0.5000 0.0000 0.2243 (  1255 PWs)   bands (ev):

   -32.8760 -11.3630 -11.1282 -11.0211   6.1888   8.7079  10.2648  12.6549
    13.5393  17.5024  19.5630  20.3977  21.8686

          k =-0.5000 0.0000-0.4485 (  1248 PWs)   bands (ev):

   -32.8676 -11.3350 -11.2665 -10.9996   6.0260   8.4720  11.0212  12.4110
    13.0030  19.2568  20.6459  20.8710  21.8218

          k =-0.5000 0.0000-0.2243 (  1255 PWs)   bands (ev):

   -32.8760 -11.3630 -11.1282 -11.0211   6.1888   8.7079  10.2648  12.6549
    13.5393  17.5024  19.5630  20.3977  21.8686

          k =-0.5000-0.8660 0.0000 (  1262 PWs)   bands (ev):

   -32.8844 -11.5571 -10.9860 -10.8583   6.8061   7.2229  11.8483  12.6934
    13.0403  17.9549  17.9765  20.5306  20.6254

          k =-0.5000-0.8660 0.2243 (  1268 PWs)   bands (ev):

   -32.8760 -11.5271 -11.1282 -10.8404   6.4419   7.5992  11.7984  12.7205
    12.8579  17.2433  19.8340  20.7017  21.9053

          k =-0.5000-0.8660-0.4485 (  1236 PWs)   bands (ev):

   -32.8675 -11.4966 -11.2660 -10.8223   5.8499   8.7492  11.1526  11.5890
    13.6762  19.3915  19.7895  20.8898  21.8468

     the Fermi energy is    15.9928 ev

!    total energy              =    -330.35215104 Ry
     total all-electron energy =     -7297.219819 Ry
     estimated scf accuracy    <          4.7E-09 Ry
     smearing contrib. (-TS)   =      -0.00035367 Ry
     internal energy E=F+TS    =    -330.35179737 Ry

     The total energy is F=E-TS. E is the sum of the following terms:
     one-electron contribution =      -2.04997335 Ry
     hartree contribution      =      12.46261815 Ry
     xc contribution           =     -24.04778574 Ry
     ewald contribution        =     -96.27913793 Ry
     one-center paw contrib.   =    -220.43751848 Ry

     convergence has been achieved in   8 iterations

     Forces acting on atoms (cartesian axes, Ry/au):

     atom    1 type  1   force =    -0.00000022    0.00000008   -0.00000160
     atom    2 type  2   force =     0.00000015   -0.00000002    0.00000076
     atom    3 type  2   force =     0.00000008   -0.00000005    0.00000084

     Total force =     0.000002     Total SCF correction =     0.000007
     SCF correction compared to forces is large: reduce conv_thr to get better values


     Computing stress (Cartesian axis) and pressure

          total   stress  (Ry/bohr**3)                   (kbar)     P=      -14.01
  -0.00018189  -0.00000000   0.00000000          -26.76       -0.00        0.00
  -0.00000000  -0.00018189   0.00000000           -0.00      -26.76        0.00
   0.00000000   0.00000000   0.00007808            0.00        0.00       11.49


     Writing all to output data dir ./tmp/zrb2-ecutrho-9.save/ :
     XML data file, charge density, pseudopotentials, collected wavefunctions

     init_run     :      3.45s CPU      1.57s WALL (       1 calls)
     electrons    :     17.29s CPU      5.41s WALL (       1 calls)
     forces       :      0.35s CPU      0.13s WALL (       1 calls)
     stress       :      1.68s CPU      1.01s WALL (       1 calls)

     Called by init_run:
     wfcinit      :      1.24s CPU      0.34s WALL (       1 calls)
     potinit      :      1.09s CPU      0.50s WALL (       1 calls)
     hinit0       :      0.93s CPU      0.63s WALL (       1 calls)

     Called by electrons:
     c_bands      :      9.55s CPU      2.43s WALL (       8 calls)
     sum_band     :      2.71s CPU      1.05s WALL (       8 calls)
     v_of_rho     :      0.35s CPU      0.09s WALL (       9 calls)
     newd         :      1.22s CPU      0.68s WALL (       9 calls)
     PAW_pot      :      3.98s CPU      1.34s WALL (       9 calls)
     mix_rho      :      0.03s CPU      0.01s WALL (       8 calls)

     Called by c_bands:
     init_us_2    :      0.63s CPU      0.16s WALL (     684 calls)
     cegterg      :      8.96s CPU      2.28s WALL (     288 calls)

     Called by *egterg:
     cdiaghg      :      0.87s CPU      0.22s WALL (    1202 calls)
     h_psi        :      8.02s CPU      2.06s WALL (    1238 calls)
     s_psi        :      0.17s CPU      0.05s WALL (    1238 calls)
     g_psi        :      0.05s CPU      0.01s WALL (     914 calls)

     Called by h_psi:
     h_psi:calbec :      0.23s CPU      0.06s WALL (    1238 calls)
     vloc_psi     :      7.53s CPU      1.93s WALL (    1238 calls)
     add_vuspsi   :      0.20s CPU      0.05s WALL (    1238 calls)

     General routines
     calbec       :      0.48s CPU      0.12s WALL (    2138 calls)
     fft          :      0.59s CPU      0.26s WALL (     140 calls)
     ffts         :      0.53s CPU      0.28s WALL (      17 calls)
     fftw         :      6.29s CPU      1.63s WALL (   25422 calls)
     interpolate  :      0.55s CPU      0.29s WALL (       9 calls)

     Parallel routines

     PWSCF        :     23.63s CPU      8.71s WALL


   This run was terminated on:  14: 2:14  10Jun2025            

=------------------------------------------------------------------------------=
   JOB DONE.
=------------------------------------------------------------------------------=
