
     Program PWSCF v.7.4 starts on 17Nov2025 at 14:28:41 

     This program is part of the open-source Quantum ESPRESSO suite
     for quantum simulation of materials; please cite
         "P. Giannozzi et al., J. Phys.:Condens. Matter 21 395502 (2009);
         "P. Giannozzi et al., J. Phys.:Condens. Matter 29 465901 (2017);
         "P. Giannozzi et al., J. Chem. Phys. 152 154105 (2020);
          URL http://www.quantum-espresso.org", 
     in publications or presentations arising from this work. More details at
     http://www.quantum-espresso.org/quote

     Parallel version (MPI & OpenMP), running on      64 processor cores
     Number of MPI processes:                64
     Threads/MPI process:                     1

     MPI processes distributed on     1 nodes
     87303 MiB available memory on the printing compute node when the environment starts

     Reading input from zrb2-o-H-relax.in
Warning: card &CELL ignored
Warning: card / ignored
Warning: card &FCP ignored
Warning: card / ignored
Warning: card &RISM ignored
Warning: card / ignored

     Current dimensions of program PWSCF are:
     Max number of different atomic species (ntypx) = 10
     Max number of k-points (npk) =  40000
     Max angular momentum in pseudopotentials (lmaxx) =  4
     file Zr.pbe-spn-kjpaw_psl.1.0.0.UPF: wavefunction(s)  4S 4P renormalized
     file O.pbe-n-kjpaw_psl.0.1.UPF: wavefunction(s)  2P renormalized

     K-points division:     npool     =       2
     R & G space division:  proc/nbgrp/npool/nimage =      32
     Subspace diagonalization in iterative solution of the eigenvalue problem:
     one sub-group per band group will be used
     ELPA distributed-memory algorithm (size of sub-group:  5*  5 procs)


     Parallelization info
     --------------------
     sticks:   dense  smooth     PW     G-vecs:    dense   smooth      PW
     Min         498     248     64               115266    40745    5420
     Max         499     250     65               115281    40755    5437
     Sum       15937    7963   2077              3688607  1303991  173729

     Using Slab Decomposition



     bravais-lattice index     =            0
     lattice parameter (alat)  =      24.0410  a.u.
     unit-cell volume          =   27301.5549 (a.u.)^3
     number of atoms/cell      =          145
     number of atomic types    =            3
     number of electrons       =       870.00
     number of Kohn-Sham states=          522
     kinetic-energy cutoff     =      50.0000  Ry
     charge density cutoff     =     400.0000  Ry
     scf convergence threshold =      1.0E-07
     mixing beta               =       0.7000
     number of iterations used =            8  local-TF  mixing
     energy convergence thresh.=      1.0E-04
     force convergence thresh. =      1.0E-03
     Exchange-correlation= SLA  PW   PBX  PBC
                           (   1   4   3   4   0   0   0)
     nstep                     =           50


     celldm(1)=  24.041023  celldm(2)=   0.000000  celldm(3)=   0.000000
     celldm(4)=   0.000000  celldm(5)=   0.000000  celldm(6)=   0.000000

     crystal axes: (cart. coord. in units of alat)
               a(1) = (   1.000000   0.000000   0.000000 )  
               a(2) = (  -0.500000   0.866025   0.000000 )  
               a(3) = (   0.000000   0.000000   2.268810 )  

     reciprocal axes: (cart. coord. in units 2 pi/alat)
               b(1) = (  1.000000  0.577351 -0.000000 )  
               b(2) = (  0.000000  1.154701  0.000000 )  
               b(3) = (  0.000000 -0.000000  0.440760 )  


     PseudoPot. # 1 for Zr read from file:
     /home/cganley2/qe-data/pseudopotentials/SSSP_1.3.0_PBE_precision/Zr.pbe-spn-kjpaw_psl.1.0.0.UPF
     MD5 check sum: 83bf7718257ce689f169bc8534fef73a
     Pseudo is Projector augmented-wave + core cor, Zval = 12.0
     Generated using &quot;atomic&quot; code by A. Dal Corso  v.6.2.2
     Shape of augmentation charge: PSQ
     Using radial grid of 1225 points,  6 beta functions with: 
                l(1) =   0
                l(2) =   0
                l(3) =   1
                l(4) =   1
                l(5) =   2
                l(6) =   2
     Q(r) pseudized with 0 coefficients 


     PseudoPot. # 2 for B  read from file:
     /home/cganley2/qe-data/pseudopotentials/SSSP_1.3.0_PBE_precision/B.pbe-n-kjpaw_psl.1.0.0.UPF
     MD5 check sum: 757e44352cacacece234d5873ff275d1
     Pseudo is Projector augmented-wave + core cor, Zval =  3.0
     Generated using &quot;atomic&quot; code by A. Dal Corso  v.6.3
     Shape of augmentation charge: PSQ
     Using radial grid of 1059 points,  4 beta functions with: 
                l(1) =   0
                l(2) =   0
                l(3) =   1
                l(4) =   1
     Q(r) pseudized with 0 coefficients 


     PseudoPot. # 3 for O  read from file:
     /home/cganley2/qe-data/pseudopotentials/SSSP_1.3.0_PBE_precision/O.pbe-n-kjpaw_psl.0.1.UPF
     MD5 check sum: 0234752ac141de4415c5fc33072bef88
     Pseudo is Projector augmented-wave + core cor, Zval =  6.0
     Generated using "atomic" code by A. Dal Corso  v.5.0.99 svn rev. 10869
     Shape of augmentation charge: BESSEL
     Using radial grid of 1095 points,  4 beta functions with: 
                l(1) =   0
                l(2) =   0
                l(3) =   1
                l(4) =   1
     Q(r) pseudized with 0 coefficients 


     atomic species   valence    mass     pseudopotential
     Zr               12.00    91.22400     Zr( 1.00)
     B                 3.00    10.81000     B ( 1.00)
     O                 6.00    15.99900     O ( 1.00)

     No symmetry found



   Cartesian axes

     site n.     atom                  positions (alat units)
         1        Zr     tau(   1) = (   0.0000000   0.0000000   0.7935304  )
         2        B      tau(   2) = (   0.1250001   0.0721688   0.9260528  )
         3        B      tau(   3) = (  -0.0000000   0.1443377   0.9260528  )
         4        Zr     tau(   4) = (   0.0000000   0.0000000   1.0651436  )
         5        B      tau(   5) = (   0.1250001   0.0721689   1.2047800  )
         6        B      tau(   6) = (  -0.0000000   0.1443377   1.2047800  )
         7        Zr     tau(   7) = (   0.0000000   0.0000000   1.3467056  )
         8        B      tau(   8) = (   0.1250000   0.0721688   1.4758076  )
         9        B      tau(   9) = (  -0.0000000   0.1443375   1.4758076  )
        10        Zr     tau(  10) = (  -0.1249999   0.2165062   0.7935305  )
        11        B      tau(  11) = (   0.0000000   0.2886753   0.9260529  )
        12        B      tau(  12) = (  -0.1250000   0.3608440   0.9260530  )
        13        Zr     tau(  13) = (  -0.1250001   0.2165065   1.0651438  )
        14        B      tau(  14) = (   0.0000000   0.2886753   1.2047800  )
        15        B      tau(  15) = (  -0.1250001   0.3608440   1.2047801  )
        16        Zr     tau(  16) = (  -0.1250000   0.2165063   1.3467057  )
        17        B      tau(  17) = (   0.0000000   0.2886750   1.4758076  )
        18        B      tau(  18) = (  -0.1250001   0.3608437   1.4758077  )
        19        Zr     tau(  19) = (  -0.2500000   0.4330127   0.7935306  )
        20        B      tau(  20) = (  -0.1250000   0.5051815   0.9260529  )
        21        B      tau(  21) = (  -0.2499999   0.5773502   0.9260530  )
        22        Zr     tau(  22) = (  -0.2500000   0.4330127   1.0651439  )
        23        B      tau(  23) = (  -0.1250000   0.5051815   1.2047801  )
        24        B      tau(  24) = (  -0.2499999   0.5773502   1.2047801  )
        25        Zr     tau(  25) = (  -0.2500000   0.4330127   1.3467058  )
        26        B      tau(  26) = (  -0.1250000   0.5051815   1.4758076  )
        27        B      tau(  27) = (  -0.2500002   0.5773503   1.4758077  )
        28        Zr     tau(  28) = (  -0.3750001   0.6495192   0.7935305  )
        29        B      tau(  29) = (  -0.2499999   0.7216878   0.9260529  )
        30        B      tau(  30) = (  -0.3749999   0.7938566   0.9260528  )
        31        Zr     tau(  31) = (  -0.3749999   0.6495189   1.0651438  )
        32        B      tau(  32) = (  -0.2499999   0.7216878   1.2047800  )
        33        B      tau(  33) = (  -0.3749999   0.7938566   1.2047800  )
        34        Zr     tau(  34) = (  -0.3750000   0.6495191   1.3467057  )
        35        B      tau(  35) = (  -0.2500002   0.7216879   1.4758076  )
        36        B      tau(  36) = (  -0.3750000   0.7938566   1.4758076  )
        37        Zr     tau(  37) = (   0.2499998   0.0000000   0.7935305  )
        38        B      tau(  38) = (   0.3750001   0.0721688   0.9260530  )
        39        B      tau(  39) = (   0.2500001   0.1443376   0.9260529  )
        40        Zr     tau(  40) = (   0.2500001   0.0000000   1.0651438  )
        41        B      tau(  41) = (   0.3750001   0.0721688   1.2047801  )
        42        B      tau(  42) = (   0.2500001   0.1443376   1.2047800  )
        43        Zr     tau(  43) = (   0.2500000   0.0000000   1.3467057  )
        44        B      tau(  44) = (   0.3749998   0.0721686   1.4758077  )
        45        B      tau(  45) = (   0.2499998   0.1443375   1.4758076  )
        46        Zr     tau(  46) = (   0.1249999   0.2165062   0.7935305  )
        47        B      tau(  47) = (   0.2500001   0.2886752   0.9260530  )
        48        B      tau(  48) = (   0.1250000   0.3608440   0.9260530  )
        49        Zr     tau(  49) = (   0.1250001   0.2165065   1.0651438  )
        50        B      tau(  50) = (   0.2500001   0.2886752   1.2047801  )
        51        B      tau(  51) = (   0.1250000   0.3608440   1.2047801  )
        52        Zr     tau(  52) = (   0.1250000   0.2165063   1.3467057  )
        53        B      tau(  53) = (   0.2499998   0.2886751   1.4758077  )
        54        B      tau(  54) = (   0.1250001   0.3608437   1.4758077  )
        55        Zr     tau(  55) = (   0.0000000   0.4330127   0.7935306  )
        56        B      tau(  56) = (   0.1250000   0.5051815   0.9260529  )
        57        B      tau(  57) = (  -0.0000000   0.5773503   0.9260530  )
        58        Zr     tau(  58) = (   0.0000000   0.4330127   1.0651439  )
        59        B      tau(  59) = (   0.1250000   0.5051815   1.2047801  )
        60        B      tau(  60) = (  -0.0000000   0.5773503   1.2047801  )
        61        Zr     tau(  61) = (   0.0000000   0.4330124   1.3467059  )
        62        B      tau(  62) = (   0.1250000   0.5051815   1.4758076  )
        63        B      tau(  63) = (  -0.0000000   0.5773503   1.4758077  )
        64        Zr     tau(  64) = (  -0.1250000   0.6495190   0.7935306  )
        65        B      tau(  65) = (   0.0000000   0.7216878   0.9260529  )
        66        B      tau(  66) = (  -0.1249999   0.7938566   0.9260530  )
        67        Zr     tau(  67) = (  -0.1250000   0.6495190   1.0651439  )
        68        B      tau(  68) = (   0.0000000   0.7216878   1.2047801  )
        69        B      tau(  69) = (  -0.1249999   0.7938566   1.2047801  )
        70        Zr     tau(  70) = (  -0.1250002   0.6495192   1.3467059  )
        71        B      tau(  71) = (   0.0000000   0.7216879   1.4758076  )
        72        B      tau(  72) = (  -0.1250002   0.7938568   1.4758077  )
        73        Zr     tau(  73) = (   0.5000000   0.0000000   0.7935306  )
        74        B      tau(  74) = (   0.6249999   0.0721688   0.9260530  )
        75        B      tau(  75) = (   0.5000000   0.1443376   0.9260529  )
        76        Zr     tau(  76) = (   0.5000000   0.0000000   1.0651439  )
        77        B      tau(  77) = (   0.6249999   0.0721688   1.2047801  )
        78        B      tau(  78) = (   0.5000000   0.1443376   1.2047801  )
        79        Zr     tau(  79) = (   0.5000000   0.0000000   1.3467058  )
        80        B      tau(  80) = (   0.6250002   0.0721686   1.4758077  )
        81        B      tau(  81) = (   0.5000000   0.1443375   1.4758076  )
        82        Zr     tau(  82) = (   0.3750000   0.2165064   0.7935306  )
        83        B      tau(  83) = (   0.5000000   0.2886751   0.9260530  )
        84        B      tau(  84) = (   0.3750000   0.3608439   0.9260529  )
        85        Zr     tau(  85) = (   0.3750000   0.2165064   1.0651439  )
        86        B      tau(  86) = (   0.5000000   0.2886751   1.2047801  )
        87        B      tau(  87) = (   0.3750000   0.3608439   1.2047801  )
        88        Zr     tau(  88) = (   0.3749998   0.2165062   1.3467059  )
        89        B      tau(  89) = (   0.5000000   0.2886751   1.4758077  )
        90        B      tau(  90) = (   0.3750000   0.3608439   1.4758076  )
        91        Zr     tau(  91) = (   0.2500000   0.4330127   0.7935306  )
        92        B      tau(  92) = (   0.3750000   0.5051814   0.9260530  )
        93        B      tau(  93) = (   0.2499999   0.5773502   0.9260530  )
        94        Zr     tau(  94) = (   0.2500000   0.4330127   1.0651439  )
        95        B      tau(  95) = (   0.3750000   0.5051814   1.2047801  )
        96        B      tau(  96) = (   0.2499999   0.5773502   1.2047801  )
        97        Zr     tau(  97) = (   0.2500000   0.4330127   1.3467058  )
        98        B      tau(  98) = (   0.3749999   0.5051817   1.4758077  )
        99        B      tau(  99) = (   0.2500002   0.5773503   1.4758077  )
       100        Zr     tau( 100) = (   0.1250000   0.6495190   0.7935306  )
       101        B      tau( 101) = (   0.2499999   0.7216878   0.9260529  )
       102        B      tau( 102) = (   0.1249999   0.7938566   0.9260530  )
       103        Zr     tau( 103) = (   0.1250000   0.6495190   1.0651439  )
       104        B      tau( 104) = (   0.2499999   0.7216878   1.2047800  )
       105        B      tau( 105) = (   0.1249999   0.7938566   1.2047801  )
       106        Zr     tau( 106) = (   0.1250002   0.6495192   1.3467059  )
       107        B      tau( 107) = (   0.2500002   0.7216879   1.4758076  )
       108        B      tau( 108) = (   0.1250002   0.7938568   1.4758077  )
       109        Zr     tau( 109) = (   0.7500002   0.0000000   0.7935305  )
       110        B      tau( 110) = (   0.8749999   0.0721688   0.9260528  )
       111        B      tau( 111) = (   0.7499999   0.1443376   0.9260529  )
       112        Zr     tau( 112) = (   0.7499999   0.0000000   1.0651438  )
       113        B      tau( 113) = (   0.8749999   0.0721689   1.2047800  )
       114        B      tau( 114) = (   0.7499999   0.1443376   1.2047800  )
       115        Zr     tau( 115) = (   0.7500000   0.0000000   1.3467057  )
       116        B      tau( 116) = (   0.8750000   0.0721688   1.4758076  )
       117        B      tau( 117) = (   0.7500002   0.1443375   1.4758076  )
       118        Zr     tau( 118) = (   0.6250000   0.2165064   0.7935306  )
       119        B      tau( 119) = (   0.7499999   0.2886752   0.9260530  )
       120        B      tau( 120) = (   0.6250000   0.3608439   0.9260529  )
       121        Zr     tau( 121) = (   0.6250000   0.2165064   1.0651439  )
       122        B      tau( 122) = (   0.7499999   0.2886752   1.2047801  )
       123        B      tau( 123) = (   0.6250000   0.3608439   1.2047801  )
       124        Zr     tau( 124) = (   0.6250003   0.2165062   1.3467059  )
       125        B      tau( 125) = (   0.7500002   0.2886751   1.4758077  )
       126        B      tau( 126) = (   0.6250000   0.3608439   1.4758076  )
       127        Zr     tau( 127) = (   0.5000000   0.4330127   0.7935306  )
       128        B      tau( 128) = (   0.6250000   0.5051814   0.9260530  )
       129        B      tau( 129) = (   0.5000000   0.5773501   0.9260529  )
       130        Zr     tau( 130) = (   0.5000000   0.4330127   1.0651439  )
       131        B      tau( 131) = (   0.6250001   0.5051814   1.2047801  )
       132        B      tau( 132) = (   0.5000000   0.5773501   1.2047800  )
       133        Zr     tau( 133) = (   0.5000000   0.4330130   1.3467059  )
       134        B      tau( 134) = (   0.6250001   0.5051817   1.4758077  )
       135        B      tau( 135) = (   0.5000000   0.5773505   1.4758076  )
       136        Zr     tau( 136) = (   0.3750001   0.6495192   0.7935305  )
       137        B      tau( 137) = (   0.5000000   0.7216877   0.9260528  )
       138        B      tau( 138) = (   0.3749999   0.7938566   0.9260528  )
       139        Zr     tau( 139) = (   0.3749999   0.6495189   1.0651438  )
       140        B      tau( 140) = (   0.5000000   0.7216877   1.2047800  )
       141        B      tau( 141) = (   0.3749999   0.7938566   1.2047800  )
       142        Zr     tau( 142) = (   0.3750000   0.6495191   1.3467057  )
       143        B      tau( 143) = (   0.5000000   0.7216879   1.4758076  )
       144        B      tau( 144) = (   0.3750000   0.7938566   1.4758076  )
       145        O      tau( 145) = (   0.2499615   0.4331093   1.5937140  )

     number of k points=     4  Gaussian smearing, width (Ry)=  0.0100
                       cart. coord. in units 2pi/alat
        k(    1) = (   0.0000000   0.0000000   0.0000000), wk =   0.5000000
        k(    2) = (   0.0000000  -0.5773505   0.0000000), wk =   0.5000000
        k(    3) = (   0.5000000  -0.2886753   0.0000000), wk =   0.5000000
        k(    4) = (  -0.5000000  -0.2886753   0.0000000), wk =   0.5000000

     Dense  grid:  3688607 G-vectors     FFT dimensions: ( 160, 160, 360)

     Smooth grid:  1303991 G-vectors     FFT dimensions: ( 120, 120, 250)

     Estimated max dynamical RAM per process >     745.81 MB

     Estimated total dynamical RAM >      45.73 GB

     Atomic positions and unit cell read from directory:
     ./tmp/pwscf.save/
     Atomic positions from file used, from input discarded


     The initial density is read from file :
     ./tmp/pwscf.save/charge-density


     negative rho (up, down):  6.856E-03 0.000E+00
     Cannot read wfcs: file not found
     Starting wfcs are 1012 randomized atomic wfcs
     Checking if some PAW data can be deallocated... 

     total cpu time spent up to now is       50.4 secs

     per-process dynamical memory:   473.3 Mb

     Self-consistent Calculation

     iteration #  1     ecut=    50.00 Ry     beta= 0.70
     Davidson diagonalization with overlap
     c_bands:  1 eigenvalues not converged
     ethr =  1.00E-05,  avg # of iterations = 24.0

     negative rho (up, down):  2.257E-02 0.000E+00

     total cpu time spent up to now is      256.6 secs

     total energy              =  -15893.60456701 Ry
     estimated scf accuracy    <       5.75578593 Ry

     iteration #  2     ecut=    50.00 Ry     beta= 0.70
     Davidson diagonalization with overlap
     ethr =  6.62E-04,  avg # of iterations =  2.0

     negative rho (up, down):  3.649E-02 0.000E+00

     total cpu time spent up to now is      317.6 secs

     total energy              =  -15893.66817473 Ry
     estimated scf accuracy    <       0.79926006 Ry

     iteration #  3     ecut=    50.00 Ry     beta= 0.70
     Davidson diagonalization with overlap
     ethr =  9.19E-05,  avg # of iterations =  2.8

     negative rho (up, down):  3.815E-02 0.000E+00

     total cpu time spent up to now is      383.2 secs

     total energy              =  -15893.72814845 Ry
     estimated scf accuracy    <       0.14171664 Ry

     iteration #  4     ecut=    50.00 Ry     beta= 0.70
     Davidson diagonalization with overlap
     ethr =  1.63E-05,  avg # of iterations =  8.2

     negative rho (up, down):  3.739E-02 0.000E+00

     total cpu time spent up to now is      455.6 secs

     total energy              =  -15893.73859788 Ry
     estimated scf accuracy    <       0.00820370 Ry

     iteration #  5     ecut=    50.00 Ry     beta= 0.70
     Davidson diagonalization with overlap
     ethr =  9.43E-07,  avg # of iterations = 12.5

     negative rho (up, down):  3.471E-02 0.000E+00

     total cpu time spent up to now is      557.4 secs

     total energy              =  -15893.73962119 Ry
     estimated scf accuracy    <       0.00244877 Ry

     iteration #  6     ecut=    50.00 Ry     beta= 0.70
     Davidson diagonalization with overlap
     ethr =  2.81E-07,  avg # of iterations =  2.0

     negative rho (up, down):  3.184E-02 0.000E+00

     total cpu time spent up to now is      619.3 secs

     total energy              =  -15893.73955824 Ry
     estimated scf accuracy    <       0.00138411 Ry

     iteration #  7     ecut=    50.00 Ry     beta= 0.70
     Davidson diagonalization with overlap
     ethr =  1.59E-07,  avg # of iterations =  2.0

     negative rho (up, down):  2.913E-02 0.000E+00

     total cpu time spent up to now is      680.3 secs

     total energy              =  -15893.73949535 Ry
     estimated scf accuracy    <       0.00040161 Ry

     iteration #  8     ecut=    50.00 Ry     beta= 0.70
     Davidson diagonalization with overlap
     ethr =  4.62E-08,  avg # of iterations =  2.0

     negative rho (up, down):  2.365E-02 0.000E+00

     total cpu time spent up to now is      740.8 secs

     total energy              =  -15893.73934768 Ry
     estimated scf accuracy    <       0.00026423 Ry

     iteration #  9     ecut=    50.00 Ry     beta= 0.70
     Davidson diagonalization with overlap
     ethr =  3.04E-08,  avg # of iterations =  2.0

     negative rho (up, down):  1.737E-02 0.000E+00

     total cpu time spent up to now is      802.3 secs

     total energy              =  -15893.73923128 Ry
     estimated scf accuracy    <       0.00011676 Ry

     iteration # 10     ecut=    50.00 Ry     beta= 0.70
     Davidson diagonalization with overlap
     ethr =  1.34E-08,  avg # of iterations =  2.0

     negative rho (up, down):  1.257E-02 0.000E+00

     total cpu time spent up to now is      864.7 secs

     total energy              =  -15893.73917510 Ry
     estimated scf accuracy    <       0.00004786 Ry

     iteration # 11     ecut=    50.00 Ry     beta= 0.70
     Davidson diagonalization with overlap
     ethr =  5.50E-09,  avg # of iterations =  2.0

     negative rho (up, down):  8.957E-03 0.000E+00

     total cpu time spent up to now is      925.6 secs

     total energy              =  -15893.73915636 Ry
     estimated scf accuracy    <       0.00001573 Ry

     iteration # 12     ecut=    50.00 Ry     beta= 0.70
     Davidson diagonalization with overlap
     ethr =  1.81E-09,  avg # of iterations =  3.0

     negative rho (up, down):  7.558E-03 0.000E+00

     total cpu time spent up to now is      987.9 secs

     total energy              =  -15893.73915515 Ry
     estimated scf accuracy    <       0.00000491 Ry

     iteration # 13     ecut=    50.00 Ry     beta= 0.70
     Davidson diagonalization with overlap
     ethr =  5.65E-10,  avg # of iterations =  3.2

     negative rho (up, down):  6.872E-03 0.000E+00

     total cpu time spent up to now is     1050.3 secs

     total energy              =  -15893.73915608 Ry
     estimated scf accuracy    <       0.00000221 Ry

     iteration # 14     ecut=    50.00 Ry     beta= 0.70
     Davidson diagonalization with overlap
     ethr =  2.54E-10,  avg # of iterations =  3.0

     negative rho (up, down):  6.780E-03 0.000E+00

     total cpu time spent up to now is     1111.5 secs

     total energy              =  -15893.73915636 Ry
     estimated scf accuracy    <       0.00000043 Ry

     iteration # 15     ecut=    50.00 Ry     beta= 0.70
     Davidson diagonalization with overlap
     ethr =  4.91E-11,  avg # of iterations =  5.0

     negative rho (up, down):  6.867E-03 0.000E+00

     total cpu time spent up to now is     1177.6 secs

     End of self-consistent calculation

          k = 0.0000 0.0000 0.0000 (162831 PWs)   bands (ev):

   -46.3697 -46.3253 -46.3199 -46.3171 -46.3147 -46.3138 -46.3105 -46.2731
   -46.2669 -46.2654 -46.2635 -46.2608 -46.2596 -46.2588 -46.2580 -46.2575
   -46.1358 -45.9134 -45.8677 -45.8599 -45.8573 -45.8472 -45.8451 -45.8393
   -45.8171 -45.8067 -45.7991 -45.7971 -45.7895 -45.7855 -45.7852 -45.7806
   -45.7778 -45.7730 -45.7596 -45.6987 -45.6854 -45.6621 -45.6562 -45.6452
   -45.6245 -45.6174 -45.6114 -45.5849 -45.5650 -45.5573 -45.5568 -45.5469
   -24.7901 -24.7895 -24.7866 -24.7014 -24.6400 -24.6390 -24.6372 -24.6364
   -24.6349 -24.6348 -24.6263 -24.6220 -24.6202 -24.6177 -24.6173 -24.6140
   -24.5382 -24.5306 -24.5280 -24.5273 -24.5251 -24.5241 -24.5233 -24.5216
   -24.5210 -24.4619 -24.4559 -24.4552 -24.4479 -24.4086 -24.3849 -24.3831
   -24.3793 -24.3784 -24.3781 -24.3775 -24.3707 -24.3182 -24.3165 -24.3123
   -24.3121 -24.3119 -24.3109 -24.2928 -24.2917 -24.2915 -24.2895 -24.2855
   -24.2812 -24.2759 -24.2705 -24.2013 -24.1949 -24.1829 -24.1816 -24.1794
   -24.1787 -24.1712 -24.1706 -24.1462 -24.1457 -24.1432 -24.1364 -24.1157
   -24.1152 -24.1116 -24.0961 -24.0949 -24.0905 -24.0814 -24.0740 -24.0708
   -24.0671 -24.0637 -24.0625 -24.0548 -24.0530 -24.0529 -24.0506 -24.0492
   -24.0474 -24.0469 -24.0373 -24.0277 -24.0252 -24.0250 -24.0213 -24.0209
   -24.0194 -23.9980 -23.9787 -23.9725 -23.9652 -23.9573 -23.9535 -23.9534
   -23.9477 -23.9473 -23.9469 -23.9453 -23.9411 -23.9370 -23.9316 -23.9196
   -23.9078 -23.8894 -23.8761 -23.8658 -23.8518 -23.8500 -23.8398 -23.8369
   -23.8311 -23.8270 -23.8236 -23.8179 -23.8025 -23.7808 -23.7679 -23.7630
   -23.7622 -23.7611 -23.7577 -23.7534 -23.7252 -23.6675 -23.6659 -23.6640
   -23.6609 -23.6586 -23.6559 -23.6061 -23.6031 -23.5791 -23.5593 -23.5592
   -23.5218 -23.5141 -23.4813 -23.4623 -23.4433 -23.4385 -23.3620 -23.3613
   -18.9132  -9.6388  -8.7468  -8.6008  -8.5989  -8.5928  -8.5857  -8.5843
    -8.5805  -8.0721  -8.0417  -8.0359  -8.0318  -8.0295  -8.0207  -7.6862
    -7.4073  -6.9913  -6.9885  -6.9806  -6.9798  -6.9784  -6.9742  -6.9645
    -6.9599  -6.9587  -6.8792  -6.8000  -6.7974  -6.7902  -6.7889  -6.7842
    -6.7837  -6.7732  -6.7511  -6.7294  -6.5646  -6.4864  -6.3018  -6.2877
    -6.2764  -5.9190  -5.9105  -5.9074  -5.5959  -5.5264  -5.3826  -5.3605
    -5.2271  -5.1484  -5.0715  -5.0695  -5.0497  -5.0411  -4.7805  -4.6040
    -4.5577  -4.5555  -4.5548  -4.5539  -4.5532  -4.5504  -4.2254  -4.2169
    -4.1991  -4.1954  -4.1927  -4.1819  -4.0147  -3.7748  -3.6740  -3.6218
    -3.2094  -3.0867  -3.0318  -2.9818  -2.8907  -2.8596  -2.8584  -2.8570
    -2.8545  -2.8536  -2.8527  -2.7102  -2.7039  -2.6970  -2.6946  -2.6866
    -2.6857  -2.6556  -2.5945  -2.4366  -2.4245  -2.4209  -2.4201  -2.4160
    -2.4111  -2.4102  -2.3984  -2.3929  -2.3797  -2.3585  -2.3383  -2.2268
    -2.1641  -2.1620  -2.1368  -2.1361  -2.1268  -2.1025  -2.0172  -1.6977
    -1.6900  -1.6854  -1.3018  -1.2461  -1.2420  -1.2231  -1.2158  -1.2106
    -1.1824  -1.1613  -1.1502  -1.1241  -0.9981  -0.9935  -0.9730  -0.9577
    -0.9531  -0.9393  -0.9298  -0.9216  -0.8970  -0.8624  -0.7580  -0.7542
    -0.7535  -0.7528  -0.7509  -0.7488  -0.7426  -0.7312  -0.7118  -0.7055
    -0.7040  -0.5656  -0.5638  -0.5622  -0.5608  -0.5597  -0.5582  -0.5264
    -0.4618  -0.3826  -0.3049  -0.2859  -0.2711  -0.2675  -0.2602  -0.2535
    -0.2360  -0.2273  -0.2203  -0.2146  -0.0855  -0.0062  -0.0036   0.0758
     0.1053   0.1162   0.1543   0.1717   0.1847   0.1919   0.1957   0.2005
     0.2055   0.2070   0.2082   0.2093   0.2160   0.2164   0.2275   0.2393
     0.2436   0.2524   0.2550   0.3600   0.4479   0.4649   0.6886   0.7479
     0.8245   0.8975   0.9017   0.9279   0.9316   0.9370   0.9546   0.9631
     0.9825   0.9896   0.9914   0.9925   0.9947   0.9995   1.0086   1.0138
     1.0179   1.0959   1.1550   1.1604   1.1606   1.1665   1.1700   1.1812
     1.3579   1.3919   1.6582   1.7041   1.8896   1.8984   1.9196   1.9477
     1.9489   1.9500   1.9512   1.9539   1.9562   2.0162   2.0519   2.1032
     2.2201   2.2252   2.2710   2.2736   2.2754   2.2788   2.2811   2.2817
     2.3879   2.4145   2.4841   2.4890   2.4908   2.5332   2.5657   2.5720
     2.5832   2.5973   2.6110   2.6449   2.6835   2.9179   3.1451   3.2909
     3.2911   3.2946   3.3005   3.3152   3.4974   3.4995   3.5801   3.6378
     3.6407   3.7512   3.8287   3.8353   3.8606   3.8624   3.8646   3.8690
     3.8697   3.8713   3.8801   3.8817   3.8841   3.8971   3.9322   3.9502
     4.2147   4.2840   4.3025   4.3457   4.3672   4.3707   4.6958   4.7230
     4.7322   4.7477   4.7543   4.7593   4.7637   4.7651   4.7793   4.7838
     4.8011   4.8515   4.8730   4.8960   4.8976   4.9026   4.9136   4.9211
     4.9539   4.9716   4.9796   4.9833   4.9890   4.9982   4.9998   5.0013
     5.0048   5.0072   5.0128   5.0170   5.1142   5.2238   5.2475   5.2704
     5.2793   5.2887   5.2895   5.2995   5.3039   5.3087   5.3188   5.3302
     5.4141   5.4822

          k = 0.0000-0.5774 0.0000 (163042 PWs)   bands (ev):

   -46.3568 -46.3520 -46.3299 -46.3266 -46.2956 -46.2910 -46.2893 -46.2856
   -46.2816 -46.2764 -46.2672 -46.2616 -46.2607 -46.2593 -46.2515 -46.2497
   -46.1358 -45.9063 -45.8849 -45.8652 -45.8636 -45.8372 -45.8273 -45.8249
   -45.8220 -45.8145 -45.8020 -45.8005 -45.7971 -45.7911 -45.7800 -45.7773
   -45.7750 -45.7725 -45.7598 -45.7020 -45.6793 -45.6672 -45.6565 -45.6445
   -45.6257 -45.6175 -45.6023 -45.5913 -45.5653 -45.5606 -45.5537 -45.5463
   -24.7290 -24.7243 -24.7239 -24.7235 -24.6798 -24.6774 -24.6758 -24.6746
   -24.6404 -24.6390 -24.6377 -24.6350 -24.5935 -24.5911 -24.5891 -24.5867
   -24.5541 -24.5483 -24.5336 -24.5293 -24.5288 -24.5281 -24.5272 -24.5261
   -24.5248 -24.5240 -24.5109 -24.5092 -24.4485 -24.4159 -24.4124 -24.4021
   -24.3898 -24.3843 -24.3823 -24.3760 -24.3534 -24.3362 -24.3248 -24.2938
   -24.2927 -24.2821 -24.2785 -24.2534 -24.2478 -24.2204 -24.2168 -24.2157
   -24.2143 -24.2137 -24.2105 -24.2034 -24.1972 -24.1963 -24.1961 -24.1945
   -24.1939 -24.1872 -24.1561 -24.1466 -24.1462 -24.1446 -24.1444 -24.1441
   -24.1385 -24.1361 -24.1266 -24.1258 -24.1193 -24.1160 -24.1155 -24.1068
   -24.0999 -24.0961 -24.0875 -24.0842 -24.0836 -24.0795 -24.0764 -24.0636
   -24.0585 -24.0557 -24.0529 -24.0511 -24.0466 -24.0441 -24.0438 -24.0415
   -24.0290 -24.0236 -24.0181 -24.0070 -23.9842 -23.9798 -23.9701 -23.9553
   -23.9355 -23.9164 -23.9157 -23.9131 -23.9109 -23.9008 -23.8889 -23.8790
   -23.8747 -23.8687 -23.8504 -23.8428 -23.8375 -23.8329 -23.8317 -23.8289
   -23.8183 -23.8171 -23.8073 -23.7758 -23.7647 -23.7639 -23.7634 -23.7631
   -23.7460 -23.7381 -23.7266 -23.7067 -23.6932 -23.6840 -23.6573 -23.6550
   -23.6437 -23.6326 -23.6266 -23.6113 -23.5958 -23.5856 -23.5842 -23.5828
   -23.5446 -23.5398 -23.5191 -23.4776 -23.4703 -23.4340 -23.4175 -23.3749
   -18.9132  -9.3634  -9.3532  -8.8394  -8.8298  -8.5515  -8.5453  -8.2112
    -8.1853  -7.9072  -7.9023  -7.9006  -7.8947  -7.7208  -7.5948  -7.5870
    -7.5749  -7.5733  -7.5068  -7.5035  -7.3426  -7.3408  -7.2524  -7.2211
    -6.9685  -6.9667  -6.9601  -6.9551  -6.8580  -6.8169  -6.6589  -6.6551
    -6.6430  -6.6270  -6.4231  -6.3433  -6.3392  -6.2860  -6.1360  -6.0836
    -5.9640  -5.9286  -5.7695  -5.7668  -5.4643  -5.4508  -5.4341  -5.4293
    -5.3115  -5.2482  -5.2085  -5.1953  -5.0181  -5.0162  -4.9963  -4.9579
    -4.6125  -4.5932  -4.5660  -4.5559  -4.4803  -4.4137  -4.4130  -4.3089
    -4.0613  -3.9732  -3.9414  -3.9043  -3.6974  -3.5915  -3.5345  -3.5337
    -3.5332  -3.5310  -3.4157  -3.3484  -3.2891  -3.2577  -3.2469  -3.2419
    -3.2174  -3.2110  -3.2056  -3.1906  -3.0319  -2.9489  -2.6869  -2.6312
    -2.5848  -2.5827  -2.4436  -2.4200  -2.1616  -2.0986  -2.0945  -2.0817
    -2.0798  -2.0606  -1.9674  -1.9122  -1.8959  -1.8936  -1.8928  -1.8356
    -1.7867  -1.7776  -1.7746  -1.7585  -1.7230  -1.7189  -1.6841  -1.6535
    -1.6205  -1.6183  -1.5935  -1.5877  -1.5773  -1.5573  -1.5393  -1.5345
    -1.4555  -1.4328  -1.2036  -1.1901  -1.1720  -1.1552  -1.1357  -1.1102
    -1.0524  -1.0059  -0.8642  -0.8334  -0.8206  -0.8099  -0.7840  -0.7656
    -0.7622  -0.7606  -0.7547  -0.7524  -0.7507  -0.7435  -0.7362  -0.7306
    -0.7220  -0.6969  -0.6553  -0.6436  -0.5925  -0.5854  -0.4656  -0.4108
    -0.4025  -0.3948  -0.3808  -0.3458  -0.3291  -0.2778  -0.2348  -0.2284
    -0.2202  -0.1887  -0.1797  -0.1733  -0.1360  -0.1174  -0.1126  -0.0884
    -0.0540   0.0146   0.0327   0.0683   0.1066   0.1245   0.1307   0.1944
     0.2033   0.2052   0.2073   0.2404   0.2758   0.2914   0.3333   0.3968
     0.4165   0.4196   0.4485   0.4592   0.4739   0.4804   0.4867   0.4918
     0.4981   0.5840   0.6361   0.6743   0.6806   0.6879   0.6942   0.7860
     0.8703   0.9162   0.9884   1.0217   1.0572   1.0878   1.2145   1.2322
     1.2494   1.2734   1.2756   1.2807   1.2878   1.2954   1.3045   1.3381
     1.3799   1.4593   1.4931   1.5515   1.6606   1.7409   1.7620   1.9429
     1.9908   1.9940   2.0741   2.0988   2.1297   2.1317   2.1751   2.2271
     2.2454   2.2611   2.2682   2.3076   2.3158   2.3527   2.3772   2.3944
     2.4537   2.4715   2.4806   2.5591   2.5725   2.5818   2.6346   2.6391
     2.6401   2.6745   2.7386   2.7399   2.8599   2.9321   2.9401   2.9411
     2.9432   2.9439   3.0007   3.1494   3.1876   3.2620   3.3451   3.6662
     3.6916   3.7169   3.7353   3.7432   3.7559   3.7607   3.7634   3.8092
     3.8318   3.8646   3.8858   3.9317   3.9870   3.9928   4.0256   4.0465
     4.0618   4.0728   4.0902   4.3286   4.3345   4.4012   4.4058   4.4635
     4.5236   4.7056   4.7393   4.7466   4.7558   4.7622   4.7936   4.7957
     4.8026   4.8336   4.8720   4.8877   4.8964   4.9646   4.9944   5.0396
     5.0898   5.1339   5.1559   5.1861   5.1933   5.2103   5.2173   5.2253
     5.2443   5.2820   5.2977   5.3234   5.3400   5.3660   5.3880   5.3909
     5.4075   5.4866   5.4971   5.5091   5.5302   5.5426   5.5549   5.5923
     5.6356   5.6462

          k = 0.5000-0.2887 0.0000 (163042 PWs)   bands (ev):

   -46.3567 -46.3522 -46.3297 -46.3266 -46.2957 -46.2912 -46.2894 -46.2854
   -46.2816 -46.2765 -46.2668 -46.2619 -46.2610 -46.2590 -46.2516 -46.2496
   -46.1358 -45.9063 -45.8852 -45.8652 -45.8631 -45.8372 -45.8272 -45.8253
   -45.8224 -45.8143 -45.8018 -45.8000 -45.7972 -45.7913 -45.7805 -45.7770
   -45.7749 -45.7723 -45.7601 -45.7016 -45.6797 -45.6675 -45.6564 -45.6439
   -45.6260 -45.6175 -45.6018 -45.5919 -45.5656 -45.5593 -45.5547 -45.5462
   -24.7287 -24.7244 -24.7238 -24.7237 -24.6796 -24.6774 -24.6759 -24.6748
   -24.6405 -24.6390 -24.6375 -24.6350 -24.5934 -24.5912 -24.5893 -24.5866
   -24.5539 -24.5486 -24.5332 -24.5294 -24.5288 -24.5280 -24.5272 -24.5261
   -24.5252 -24.5239 -24.5110 -24.5091 -24.4484 -24.4159 -24.4123 -24.4025
   -24.3897 -24.3844 -24.3824 -24.3764 -24.3533 -24.3360 -24.3251 -24.2940
   -24.2923 -24.2821 -24.2784 -24.2535 -24.2476 -24.2201 -24.2175 -24.2168
   -24.2146 -24.2137 -24.2110 -24.2018 -24.1969 -24.1962 -24.1959 -24.1946
   -24.1937 -24.1860 -24.1538 -24.1467 -24.1462 -24.1445 -24.1441 -24.1434
   -24.1395 -24.1360 -24.1269 -24.1256 -24.1191 -24.1163 -24.1156 -24.1081
   -24.0999 -24.0956 -24.0874 -24.0841 -24.0829 -24.0797 -24.0762 -24.0642
   -24.0583 -24.0559 -24.0530 -24.0510 -24.0467 -24.0440 -24.0438 -24.0410
   -24.0304 -24.0259 -24.0194 -24.0069 -23.9840 -23.9800 -23.9704 -23.9554
   -23.9351 -23.9161 -23.9144 -23.9130 -23.9094 -23.9035 -23.8885 -23.8791
   -23.8748 -23.8693 -23.8500 -23.8427 -23.8376 -23.8331 -23.8311 -23.8291
   -23.8199 -23.8157 -23.8057 -23.7763 -23.7646 -23.7642 -23.7634 -23.7631
   -23.7457 -23.7377 -23.7268 -23.7065 -23.6934 -23.6832 -23.6575 -23.6547
   -23.6405 -23.6322 -23.6280 -23.6134 -23.5955 -23.5854 -23.5844 -23.5834
   -23.5448 -23.5400 -23.5188 -23.4758 -23.4711 -23.4351 -23.4187 -23.3737
   -18.9132  -9.3639  -9.3527  -8.8394  -8.8296  -8.5528  -8.5442  -8.2106
    -8.1854  -7.9068  -7.9033  -7.9008  -7.8938  -7.7218  -7.5960  -7.5879
    -7.5749  -7.5715  -7.5065  -7.5037  -7.3416  -7.3411  -7.2502  -7.2187
    -6.9691  -6.9666  -6.9599  -6.9552  -6.8677  -6.8206  -6.6592  -6.6553
    -6.6421  -6.6279  -6.4001  -6.3434  -6.3391  -6.3087  -6.1230  -6.0791
    -5.9643  -5.9272  -5.7699  -5.7640  -5.4662  -5.4549  -5.4340  -5.4291
    -5.3225  -5.2456  -5.2094  -5.1972  -5.0198  -5.0158  -5.0002  -4.9565
    -4.6220  -4.5933  -4.5635  -4.5363  -4.4801  -4.4139  -4.4126  -4.3017
    -4.0803  -3.9755  -3.9433  -3.8969  -3.6977  -3.5896  -3.5343  -3.5340
    -3.5329  -3.5311  -3.4127  -3.3413  -3.2899  -3.2580  -3.2473  -3.2386
    -3.2162  -3.2105  -3.2049  -3.1903  -3.0245  -2.9712  -2.6808  -2.6318
    -2.5851  -2.5823  -2.4453  -2.4064  -2.1629  -2.0986  -2.0941  -2.0820
    -2.0797  -2.0698  -1.9705  -1.9153  -1.8967  -1.8939  -1.8929  -1.8369
    -1.7854  -1.7787  -1.7748  -1.7588  -1.7250  -1.7191  -1.6841  -1.6540
    -1.6202  -1.6177  -1.5960  -1.5856  -1.5806  -1.5577  -1.5382  -1.5331
    -1.4556  -1.4325  -1.2036  -1.1900  -1.1737  -1.1571  -1.1350  -1.1102
    -1.0511  -1.0007  -0.8606  -0.8355  -0.8202  -0.8075  -0.7842  -0.7664
    -0.7618  -0.7603  -0.7548  -0.7526  -0.7508  -0.7430  -0.7346  -0.7308
    -0.7204  -0.6959  -0.6530  -0.6415  -0.5949  -0.5837  -0.4704  -0.4136
    -0.4030  -0.3905  -0.3833  -0.3396  -0.3367  -0.2752  -0.2381  -0.2300
    -0.2197  -0.1883  -0.1776  -0.1685  -0.1379  -0.1170  -0.1084  -0.0860
    -0.0623   0.0148   0.0324   0.0710   0.1065   0.1224   0.1286   0.1937
     0.2024   0.2058   0.2068   0.2387   0.2753   0.2920   0.3258   0.3990
     0.4161   0.4212   0.4461   0.4580   0.4721   0.4803   0.4874   0.4921
     0.4981   0.5912   0.6449   0.6714   0.6806   0.6883   0.6941   0.7833
     0.8768   0.9157   0.9951   1.0211   1.0428   1.0937   1.2178   1.2283
     1.2490   1.2750   1.2762   1.2819   1.2855   1.2959   1.3043   1.3380
     1.3816   1.4617   1.4933   1.5531   1.6550   1.7404   1.7621   1.9471
     1.9916   1.9936   2.0754   2.0970   2.1288   2.1331   2.1747   2.2274
     2.2442   2.2630   2.2666   2.3050   2.3153   2.3509   2.3769   2.3997
     2.4561   2.4717   2.4721   2.5527   2.5694   2.5818   2.6305   2.6387
     2.6400   2.6861   2.7388   2.7398   2.8670   2.9329   2.9402   2.9411
     2.9431   2.9440   2.9926   3.1531   3.1856   3.2512   3.3499   3.6654
     3.6934   3.7171   3.7348   3.7434   3.7538   3.7611   3.7628   3.8053
     3.8441   3.8640   3.8845   3.9315   3.9868   3.9999   4.0234   4.0508
     4.0616   4.0744   4.0834   4.3215   4.3356   4.4005   4.4052   4.4595
     4.5227   4.7030   4.7427   4.7466   4.7559   4.7621   4.7938   4.7956
     4.8034   4.8302   4.8693   4.8831   4.8906   4.9677   4.9921   5.0489
     5.1063   5.1330   5.1533   5.1837   5.1936   5.2121   5.2200   5.2264
     5.2510   5.2811   5.3059   5.3231   5.3389   5.3665   5.3812   5.3905
     5.4053   5.4835   5.4960   5.5047   5.5290   5.5417   5.5552   5.6041
     5.6339   5.6456

          k =-0.5000-0.2887 0.0000 (163042 PWs)   bands (ev):

   -46.3561 -46.3530 -46.3290 -46.3270 -46.2953 -46.2937 -46.2877 -46.2855
   -46.2789 -46.2786 -46.2671 -46.2620 -46.2601 -46.2594 -46.2524 -46.2491
   -46.1358 -45.9058 -45.8871 -45.8645 -45.8605 -45.8395 -45.8278 -45.8254
   -45.8227 -45.8136 -45.8020 -45.7987 -45.7976 -45.7881 -45.7852 -45.7766
   -45.7738 -45.7722 -45.7604 -45.6993 -45.6818 -45.6701 -45.6560 -45.6398
   -45.6275 -45.6176 -45.6020 -45.5924 -45.5656 -45.5579 -45.5558 -45.5462
   -24.7278 -24.7259 -24.7239 -24.7232 -24.6791 -24.6770 -24.6763 -24.6755
   -24.6411 -24.6379 -24.6371 -24.6355 -24.5933 -24.5918 -24.5890 -24.5867
   -24.5525 -24.5496 -24.5354 -24.5290 -24.5284 -24.5273 -24.5268 -24.5255
   -24.5250 -24.5245 -24.5116 -24.5088 -24.4513 -24.4150 -24.4136 -24.3925
   -24.3911 -24.3843 -24.3797 -24.3772 -24.3588 -24.3361 -24.3272 -24.2936
   -24.2916 -24.2811 -24.2795 -24.2530 -24.2489 -24.2198 -24.2163 -24.2162
   -24.2152 -24.2138 -24.2097 -24.2054 -24.1967 -24.1963 -24.1960 -24.1947
   -24.1938 -24.1858 -24.1520 -24.1510 -24.1468 -24.1460 -24.1452 -24.1436
   -24.1331 -24.1309 -24.1302 -24.1265 -24.1179 -24.1168 -24.1156 -24.1149
   -24.1011 -24.0936 -24.0900 -24.0841 -24.0837 -24.0800 -24.0781 -24.0676
   -24.0590 -24.0528 -24.0523 -24.0502 -24.0495 -24.0454 -24.0448 -24.0375
   -24.0341 -24.0226 -24.0097 -24.0010 -23.9832 -23.9809 -23.9702 -23.9665
   -23.9281 -23.9157 -23.9137 -23.9127 -23.9036 -23.9005 -23.8902 -23.8765
   -23.8693 -23.8680 -23.8485 -23.8417 -23.8376 -23.8347 -23.8324 -23.8282
   -23.8204 -23.8158 -23.8072 -23.8006 -23.7654 -23.7643 -23.7635 -23.7630
   -23.7354 -23.7323 -23.7279 -23.7056 -23.6947 -23.6914 -23.6623 -23.6568
   -23.6548 -23.6326 -23.6109 -23.5998 -23.5938 -23.5927 -23.5866 -23.5856
   -23.5404 -23.5393 -23.5161 -23.4810 -23.4691 -23.4344 -23.4188 -23.3750
   -18.9132  -9.3643  -9.3527  -8.8361  -8.8319  -8.5609  -8.5398  -8.1951
    -8.1912  -7.9086  -7.9034  -7.8996  -7.8955  -7.7403  -7.5956  -7.5857
    -7.5770  -7.5674  -7.5073  -7.5025  -7.3470  -7.3397  -7.2069  -7.1451
    -6.9871  -6.9648  -6.9630  -6.9612  -6.9537  -6.8974  -6.6571  -6.6520
    -6.6432  -6.6349  -6.3811  -6.3437  -6.3388  -6.2535  -6.1914  -6.0871
    -5.8222  -5.8187  -5.7707  -5.6900  -5.5415  -5.4702  -5.4326  -5.4301
    -5.4164  -5.3197  -5.2089  -5.2017  -5.0464  -5.0202  -5.0103  -4.9991
    -4.6204  -4.6056  -4.5725  -4.5314  -4.4652  -4.4134  -4.4123  -4.1705
    -4.0155  -3.9507  -3.9320  -3.9025  -3.8017  -3.5358  -3.5339  -3.5326
    -3.5309  -3.4957  -3.4423  -3.4156  -3.3125  -3.2864  -3.2515  -3.2466
    -3.2152  -3.2113  -3.2095  -3.2038  -3.0073  -2.8384  -2.6774  -2.6564
    -2.6030  -2.5812  -2.5542  -2.2979  -2.2051  -2.0950  -2.0944  -2.0827
    -2.0816  -2.0634  -1.9514  -1.9270  -1.9139  -1.8942  -1.8934  -1.8406
    -1.7819  -1.7774  -1.7751  -1.7653  -1.7326  -1.7010  -1.6844  -1.6758
    -1.6262  -1.6082  -1.6009  -1.5875  -1.5737  -1.5423  -1.5360  -1.5110
    -1.4530  -1.4372  -1.2146  -1.1939  -1.1673  -1.1485  -1.1213  -1.1193
    -1.0939  -0.9807  -0.8502  -0.8237  -0.8228  -0.7950  -0.7846  -0.7681
    -0.7645  -0.7597  -0.7514  -0.7482  -0.7471  -0.7451  -0.7426  -0.7289
    -0.7191  -0.6905  -0.6696  -0.6286  -0.6023  -0.5816  -0.4837  -0.4168
    -0.4045  -0.3983  -0.3946  -0.3415  -0.2918  -0.2870  -0.2553  -0.2325
    -0.2180  -0.1901  -0.1795  -0.1397  -0.1288  -0.1124  -0.1049  -0.0726
    -0.0518   0.0147   0.0308   0.0337   0.1000   0.1209   0.1519   0.1878
     0.2038   0.2061   0.2119   0.2449   0.2833   0.2901   0.2999   0.3941
     0.4091   0.4118   0.4437   0.4525   0.4617   0.4697   0.4915   0.4939
     0.4995   0.5501   0.6276   0.6731   0.6820   0.6912   0.6945   0.8460
     0.8765   0.9301   0.9473   1.0499   1.0593   1.0845   1.1753   1.2345
     1.2499   1.2681   1.2846   1.2878   1.2926   1.2934   1.3073   1.3500
     1.3653   1.4020   1.4752   1.5576   1.7348   1.7375   1.7757   1.9893
     1.9912   2.0038   2.0922   2.1077   2.1224   2.1306   2.1582   2.2148
     2.2385   2.2538   2.2571   2.2800   2.3170   2.3323   2.3851   2.4209
     2.4319   2.4998   2.5262   2.5563   2.5682   2.6375   2.6399   2.6408
     2.6533   2.7042   2.7155   2.7381   2.7419   2.9018   2.9389   2.9410
     2.9421   2.9440   2.9599   3.1831   3.2019   3.2214   3.4077   3.6591
     3.6764   3.7289   3.7425   3.7506   3.7563   3.7624   3.7636   3.8233
     3.8400   3.8591   3.8740   3.9286   3.9537   4.0121   4.0223   4.0372
     4.0506   4.0751   4.1113   4.3133   4.3611   4.3982   4.4047   4.4843
     4.5287   4.6434   4.7364   4.7465   4.7562   4.7595   4.7913   4.8013
     4.8297   4.8552   4.8649   4.8919   4.9276   4.9587   4.9826   5.0687
     5.0956   5.1182   5.1372   5.1752   5.1964   5.2024   5.2144   5.2244
     5.2575   5.2636   5.2857   5.3251   5.3399   5.3511   5.3697   5.4052
     5.4165   5.4902   5.5012   5.5238   5.5370   5.5393   5.5623   5.5968
     5.6345   5.6596

     the Fermi energy is     2.5017 ev

!    total energy              =  -15893.73915625 Ry
     total all-electron energy =   -350412.234093 Ry
     estimated scf accuracy    <       0.00000009 Ry
     smearing contrib. (-TS)   =      -0.04744693 Ry
     internal energy E=F+TS    =  -15893.69170933 Ry

     The total energy is F=E-TS. E is the sum of the following terms:
     one-electron contribution =  -70203.34546137 Ry
     hartree contribution      =   35244.61253349 Ry
     xc contribution           =   -1156.56968509 Ry
     ewald contribution        =   30812.33577880 Ry
     one-center paw contrib.   =  -10590.72487516 Ry

     convergence has been achieved in  15 iterations

     negative rho (up, down):  6.867E-03 0.000E+00

     Forces acting on atoms (cartesian axes, Ry/au):

     atom    1 type  1   force =     0.00007864   -0.00048098    0.00088518
     atom    2 type  2   force =    -0.00030572   -0.00124276   -0.00290589
     atom    3 type  2   force =    -0.00032515   -0.00171511   -0.00238037
     atom    4 type  1   force =     0.00035184    0.00002732    0.00119965
     atom    5 type  2   force =     0.00263389    0.00499073    0.00516805
     atom    6 type  2   force =     0.00433756    0.00316708    0.00334318
     atom    7 type  1   force =     0.00176680   -0.00056935   -0.00444627
     atom    8 type  2   force =    -0.00398225    0.00317923   -0.00074345
     atom    9 type  2   force =     0.00282054    0.00368171   -0.00033228
     atom   10 type  1   force =     0.00100629   -0.00001713   -0.00260393
     atom   11 type  2   force =    -0.00019328   -0.00015640   -0.00215497
     atom   12 type  2   force =    -0.00149244   -0.00038815   -0.00317532
     atom   13 type  1   force =     0.00140548    0.00033003    0.00174157
     atom   14 type  2   force =     0.00406028   -0.00066223    0.00974649
     atom   15 type  2   force =     0.00209968   -0.00116380    0.00051435
     atom   16 type  1   force =     0.00033748   -0.00217259    0.00841608
     atom   17 type  2   force =     0.01334982    0.00423912    0.00475250
     atom   18 type  2   force =    -0.00045162   -0.00023777    0.00249080
     atom   19 type  1   force =     0.00032797   -0.00036080    0.00091500
     atom   20 type  2   force =    -0.00118823    0.00002177   -0.00255984
     atom   21 type  2   force =     0.00008790   -0.00034745   -0.00145391
     atom   22 type  1   force =     0.00008126   -0.00039111    0.00030293
     atom   23 type  2   force =     0.00302863    0.00018811    0.00037055
     atom   24 type  2   force =    -0.00024429   -0.00269854   -0.00102536
     atom   25 type  1   force =    -0.00212392   -0.00222076   -0.00405480
     atom   26 type  2   force =    -0.00925877   -0.00024177   -0.00089020
     atom   27 type  2   force =    -0.00159648   -0.00503323   -0.00670285
     atom   28 type  1   force =    -0.00028029   -0.00084202   -0.00271420
     atom   29 type  2   force =    -0.00011829   -0.00029612   -0.00277435
     atom   30 type  2   force =     0.00035236   -0.00001879   -0.00192259
     atom   31 type  1   force =    -0.00023433   -0.00049227    0.00109409
     atom   32 type  2   force =     0.00127486    0.00136177   -0.00349778
     atom   33 type  2   force =    -0.00088040    0.00143623    0.00039143
     atom   34 type  1   force =     0.00005302   -0.00098478    0.00738935
     atom   35 type  2   force =     0.00600831   -0.00115866   -0.00987166
     atom   36 type  2   force =    -0.00129627    0.00221093   -0.00877592
     atom   37 type  1   force =     0.00052381   -0.00053566   -0.00155260
     atom   38 type  2   force =     0.00051647   -0.00084147   -0.00262254
     atom   39 type  2   force =    -0.00014652   -0.00025856   -0.00229967
     atom   40 type  1   force =     0.00047673    0.00236653    0.00218247
     atom   41 type  2   force =    -0.00235414    0.00399682    0.00450165
     atom   42 type  2   force =    -0.00202170    0.00646324    0.01377486
     atom   43 type  1   force =     0.00007066    0.00227186    0.01355314
     atom   44 type  2   force =     0.00372394    0.00612206    0.00153188
     atom   45 type  2   force =     0.00124626   -0.01100083   -0.00002541
     atom   46 type  1   force =     0.00061999    0.00229489   -0.00105321
     atom   47 type  2   force =     0.00011568   -0.00075239   -0.00096934
     atom   48 type  2   force =    -0.00003164   -0.00031688   -0.00165571
     atom   49 type  1   force =     0.00096325   -0.00089800   -0.00040671
     atom   50 type  2   force =    -0.00049941    0.00648521   -0.00225046
     atom   51 type  2   force =     0.00251442    0.00215599   -0.00669762
     atom   52 type  1   force =    -0.01057688   -0.00211180   -0.00454475
     atom   53 type  2   force =    -0.00306684    0.01945958   -0.01700312
     atom   54 type  2   force =     0.01604690    0.00507680    0.02324869
     atom   55 type  1   force =     0.00297494   -0.00040742   -0.00098290
     atom   56 type  2   force =    -0.00021223   -0.00030660   -0.00108271
     atom   57 type  2   force =     0.00030404   -0.00021878   -0.00338366
     atom   58 type  1   force =     0.00084419   -0.00027506   -0.00167090
     atom   59 type  2   force =     0.00214337   -0.00319175   -0.00378813
     atom   60 type  2   force =     0.00304126   -0.00159445    0.00714855
     atom   61 type  1   force =    -0.00934334   -0.01119285   -0.00232326
     atom   62 type  2   force =     0.01273665   -0.00841904   -0.00315012
     atom   63 type  2   force =    -0.01141022   -0.01301690    0.00518179
     atom   64 type  1   force =    -0.00007296   -0.00043010   -0.00217336
     atom   65 type  2   force =    -0.00034587    0.00077305   -0.00286596
     atom   66 type  2   force =    -0.00034003   -0.00032549   -0.00213879
     atom   67 type  1   force =     0.00136039    0.00071259    0.00068190
     atom   68 type  2   force =     0.00490089   -0.00420436    0.00453893
     atom   69 type  2   force =     0.00284367    0.00196227    0.00050122
     atom   70 type  1   force =    -0.00149543   -0.00055670    0.00389691
     atom   71 type  2   force =    -0.00012147    0.00445476    0.00140740
     atom   72 type  2   force =     0.00201433    0.00374039   -0.00543902
     atom   73 type  1   force =     0.00003897   -0.00023893   -0.00033931
     atom   74 type  2   force =     0.00033936   -0.00016348   -0.00220393
     atom   75 type  2   force =     0.00039652   -0.00099435   -0.00268118
     atom   76 type  1   force =    -0.00023746    0.00056873    0.00200429
     atom   77 type  2   force =    -0.00272023   -0.00164097    0.00094109
     atom   78 type  2   force =    -0.00196136    0.00456351    0.00459260
     atom   79 type  1   force =     0.00273243   -0.00363493   -0.00029419
     atom   80 type  2   force =    -0.00402410    0.00051277   -0.00544980
     atom   81 type  2   force =    -0.00632347    0.00073884    0.00164194
     atom   82 type  1   force =    -0.00097660    0.00170743   -0.00095402
     atom   83 type  2   force =     0.00033051   -0.00006332   -0.00234743
     atom   84 type  2   force =     0.00063115   -0.00047779   -0.00108977
     atom   85 type  1   force =    -0.00044802    0.00068018    0.00027713
     atom   86 type  2   force =    -0.00337919    0.00557719    0.01389146
     atom   87 type  2   force =    -0.00499644    0.00439887   -0.00210031
     atom   88 type  1   force =     0.00090383    0.00019631   -0.00603661
     atom   89 type  2   force =     0.00842049   -0.00488064    0.00152482
     atom   90 type  2   force =    -0.02024729    0.00724380   -0.01423221
     atom   91 type  1   force =    -0.00027810    0.00032695    0.00014417
     atom   92 type  2   force =     0.00037496   -0.00017940   -0.00155942
     atom   93 type  2   force =     0.00035399    0.00003766   -0.00110328
     atom   94 type  1   force =     0.00073721   -0.00100332   -0.00682212
     atom   95 type  2   force =    -0.00212289   -0.00068945   -0.00672572
     atom   96 type  2   force =     0.00149945   -0.00321581   -0.00374269
     atom   97 type  1   force =    -0.00091405   -0.01548962    0.00216720
     atom   98 type  2   force =    -0.00142546   -0.01228768    0.02638287
     atom   99 type  2   force =    -0.00057460   -0.01153315   -0.01045492
     atom  100 type  1   force =     0.00136814   -0.00256832   -0.00103249
     atom  101 type  2   force =     0.00003626   -0.00042622   -0.00349299
     atom  102 type  2   force =    -0.00053243    0.00080017   -0.00286695
     atom  103 type  1   force =     0.00080413   -0.00106829   -0.00085454
     atom  104 type  2   force =     0.00056752   -0.00370092    0.00743754
     atom  105 type  2   force =     0.00151438   -0.00618618    0.00461308
     atom  106 type  1   force =    -0.00408175    0.00528403    0.00136620
     atom  107 type  2   force =     0.01638893    0.00019632    0.00990098
     atom  108 type  2   force =    -0.00094720   -0.00187655    0.00352866
     atom  109 type  1   force =     0.00038909   -0.00005251   -0.00233015
     atom  110 type  2   force =     0.00024073   -0.00028558   -0.00163997
     atom  111 type  2   force =     0.00031769   -0.00013424   -0.00286438
     atom  112 type  1   force =    -0.00115807   -0.00051269    0.00081326
     atom  113 type  2   force =     0.00281261   -0.00089972   -0.00038436
     atom  114 type  2   force =    -0.00086190   -0.00087858   -0.00274003
     atom  115 type  1   force =     0.00136699   -0.00010719    0.00577273
     atom  116 type  2   force =     0.00682958   -0.00220766   -0.00707684
     atom  117 type  2   force =    -0.00179909   -0.00589279   -0.01075865
     atom  118 type  1   force =     0.00002623   -0.00055206   -0.00149937
     atom  119 type  2   force =     0.00001116   -0.00019771   -0.00198559
     atom  120 type  2   force =     0.00151975   -0.00053987   -0.00295001
     atom  121 type  1   force =    -0.00217793    0.00080261    0.00264873
     atom  122 type  2   force =     0.00008470    0.00145066    0.00071494
     atom  123 type  2   force =    -0.00580405    0.00111529    0.00614271
     atom  124 type  1   force =    -0.00246424    0.00151820    0.01279025
     atom  125 type  2   force =     0.00001150    0.00203954   -0.00854404
     atom  126 type  2   force =    -0.00032040    0.00536505   -0.00162795
     atom  127 type  1   force =    -0.00231889    0.00043355   -0.00124420
     atom  128 type  2   force =     0.00191802   -0.00041558   -0.00239812
     atom  129 type  2   force =     0.00024078    0.00000636   -0.00232262
     atom  130 type  1   force =     0.00035834   -0.00096696   -0.00021599
     atom  131 type  2   force =    -0.00468439   -0.00271731    0.00353362
     atom  132 type  2   force =    -0.00149262   -0.00334191    0.00968787
     atom  133 type  1   force =     0.00280870    0.01118060    0.00336442
     atom  134 type  2   force =    -0.00575826    0.00107998   -0.00085558
     atom  135 type  2   force =    -0.02444877   -0.01372272    0.00550441
     atom  136 type  1   force =    -0.00119597   -0.00276730   -0.00089172
     atom  137 type  2   force =     0.00097799    0.00115834   -0.00319754
     atom  138 type  2   force =     0.00056125    0.00111489   -0.00261067
     atom  139 type  1   force =    -0.00005316   -0.00067479   -0.00140199
     atom  140 type  2   force =    -0.00051938   -0.00221682    0.00062869
     atom  141 type  2   force =    -0.00139889   -0.00249753    0.00072121
     atom  142 type  1   force =     0.01115078   -0.00067542    0.00679562
     atom  143 type  2   force =     0.00075424   -0.00075238    0.00123665
     atom  144 type  2   force =     0.00353276    0.00446492    0.00032611
     atom  145 type  3   force =    -0.00013850    0.04234346   -0.00097631

     Total force =     0.109329     Total SCF correction =     0.000813


     Computing stress (Cartesian axis) and pressure


     negative rho (up, down):  6.867E-03 0.000E+00
          total   stress  (Ry/bohr**3)                   (kbar)     P=       -5.76
  -0.00006332   0.00000556  -0.00000416           -9.31        0.82       -0.61
   0.00000556  -0.00007088   0.00000885            0.82      -10.43        1.30
  -0.00000416   0.00000885   0.00001673           -0.61        1.30        2.46

     Energy error            =      1.9E-02 Ry
     Gradient error          =      4.2E-02 Ry/Bohr

     number of scf cycles    =  27
     number of bfgs steps    =  26

     energy             old  =  -15893.7204048500 Ry
     energy             new  =  -15893.7391562531 Ry

     CASE: energy            _new < energy            _old

     new trust radius        =       0.1437557439 bohr
     new conv_thr            =       0.0000000423 Ry


ATOMIC_POSITIONS (angstrom)
Zr               0.0002005734       -0.0014455424       10.1036712274
B                1.5899604787        0.9191784243       11.7946314174
B                0.0025020666        1.8371937951       11.7942338725
Zr              -0.0012939614       -0.0071712930       13.5449915712
B                1.5842627536        0.9014711550       15.3075636799
B               -0.0024738460        1.8232956611       15.3136393240
Zr              -0.0106933775       -0.0213051203       17.1423750443
B                1.6030930509        0.8742687492       18.7642237144
B               -0.0397930675        1.7951946624       18.7526902143
Zr              -1.5889245759        2.7548129700       10.1116869699
B                0.0067976953        3.6737652368       11.7949210665
B               -1.5829157290        4.5909775687       11.7966308151
Zr              -1.5857286095        2.7524029255       13.5497854978
B                0.0018430573        3.6653769628       15.3156182294
B               -1.5807732254        4.5867937655       15.3224934960
Zr              -1.6128997268        2.7258885535       17.0840131997
B               -0.0532424017        3.5855795605       18.7379773187
B               -1.6051195704        4.5382946443       18.7430326136
Zr              -3.1792845428        5.5080094658       10.1037500910
B               -1.5839667133        6.4241921632       11.7942671875
B               -3.1792346994        7.3423929577       11.7894880774
Zr              -3.1729176507        5.5065469175       13.5460986926
B               -1.5838885349        6.4221825532       15.3192348408
B               -3.1705872766        7.3397592048       15.3118576267
Zr              -3.1498892094        5.5092790243       17.1415588665
B               -1.5780447012        6.4723035132       18.7669384664
B               -3.1428800323        7.3626273090       18.7964268884
Zr              -4.7724289929        8.2621345094       10.1119989181
B               -3.1788675597        9.1782845008       11.7892436501
B               -4.7725644746       10.0961709952       11.7893589334
Zr              -4.7712480506        8.2583577154       13.5497043559
B               -3.1769502433        9.1751777849       15.3111390494
B               -4.7750013671       10.0911327461       15.3107772020
Zr              -4.7279664067        8.2723334940       17.0805023836
B               -3.1722448282        9.1740379728       18.7957616599
B               -4.7583795335       10.0894798226       18.7856194603
Zr               3.1802201886       -0.0010812691       10.1081611161
B                4.7710551338        0.9171820400       11.7929139025
B                3.1815167726        1.8373617872       11.7922616901
Zr               3.1816711040       -0.0062274131       13.5440235440
B                4.7794517637        0.9083953116       15.3114815684
B                3.1912535354        1.8158765779       15.3035430369
Zr               3.1813761420       -0.0196305236       17.0960671145
B                4.7531973762        0.8833380535       18.7578589543
B                3.1836431579        1.8196331712       18.7926086474
Zr               1.5906028837        2.7521788442       10.1108154877
B                3.1807944467        3.6756695515       11.8023522950
B                1.5959319532        4.5920185958       11.8025040859
Zr               1.5924348948        2.7511049268       13.5586670649
B                3.1876541811        3.6583852212       15.3564547974
B                1.5945111093        4.5784410373       15.3512091662
Zr               1.5951939591        2.7049500293       17.1204785526
B                3.1748014076        3.5740653734       18.8259085116
B                1.4811989315        4.4285974177       18.7161901575
Zr              -0.0003036932        5.5063459737       10.1102225423
B                1.5959182599        6.4225804765       11.8024295477
B                0.0051227063        7.3407346629       11.7962777130
Zr               0.0064727441        5.5056382307       13.5596616659
B                1.5947063445        6.4183136480       15.3603469177
B               -0.0006327138        7.3438708582       15.3104720378
Zr               0.0041999150        5.5121894199       17.1509906557
B                1.2757107206        6.2784177851       19.0580205647
B               -0.0347144348        7.4025199592       18.7486319786
Zr              -1.5890253877        8.2605173048       10.1103851045
B                0.0033383840        9.1761444854       11.7939421524
B               -1.5876296123       10.0969176869       11.7873615721
Zr              -1.5879389043        8.2578962539       13.5463243174
B               -0.0011813448        9.1841954686       15.3087038037
B               -1.5901532743       10.0971164805       15.3059192087
Zr              -1.5909605197        8.2731883203       17.0792353554
B               -0.0074696127        9.1619816283       18.7515810205
B               -1.6047472963       10.0846825231       18.7724055877
Zr               6.3608960786       -0.0005996570       10.1025218867
B                7.9516792303        0.9146917816       11.7874538570
B                6.3610009819        1.8354035794       11.7929159256
Zr               6.3625705859       -0.0039963674       13.5390188627
B                7.9523798051        0.9168335885       15.3059239673
B                6.3639601745        1.8235133165       15.3116959803
Zr               6.3672080885       -0.0155357153       17.1509566415
B                7.9698739589        0.9210692783       18.7732270270
B                6.3993374433        1.8318007352       18.7542864667
Zr               4.7719347273        2.7518144361       10.1122245690
B                6.3587215435        3.6719650347       11.7922884194
B                4.7669551839        4.5916422232       11.8022273616
Zr               4.7717265863        2.7513233971       13.5573263226
B                6.3730575143        3.6520176270       15.3031701672
B                4.7802178173        4.5763145197       15.3548202240
Zr               4.7802211290        2.7380962849       17.1461304096
B                6.3809729695        3.6665378893       18.7845028729
B                4.8718100879        4.5620502762       18.8230293522
Zr               3.1824933150        5.5045982417       10.1111906187
B                4.7660831751        6.4223364562       11.8024177302
B                3.1809217858        7.3378204417       11.8024234874
Zr               3.1830818219        5.5035503596       13.5868524008
B                4.7796628904        6.4172691441       15.3498888406
B                3.1861011483        7.3374596680       15.3583133064
Zr               3.1951275580        5.4976130255       17.2712617845
B                4.9464076110        6.4480521758       18.7323994044
B                3.4522878268        7.4884232605       19.0922235169
Zr               1.5908236472        8.2615491459       10.1131761638
B                3.1812391098        9.1744404801       11.7963485521
B                1.5925441794       10.0935309422       11.7942914372
Zr               1.5943078856        8.2553450538       13.5632049096
B                3.1814645379        9.1832995707       15.3082009659
B                1.5872031096       10.1018458087       15.3083308764
Zr               1.5805794818        8.2834097553       17.0676452369
B                3.1478768106        9.2157359152       18.7558636912
B                1.6124217409       10.0976101882       18.7489207517
Zr               9.5428311574       -0.0020281803       10.1101798796
B               11.1329530553        0.9155684234       11.7895696375
B                9.5427851233        1.8334938244       11.7892585475
Zr               9.5444266137       -0.0041373605       13.5454979906
B               11.1317351926        0.9092744671       15.3119865778
B                9.5451298210        1.8310921601       15.3113800257
Zr               9.5339865765        0.0041293480       17.0809789791
B               11.0981349252        0.8983238038       18.7968111902
B                9.5464607708        1.8282602898       18.7969155027
Zr               7.9520811571        2.7540222357       10.1082608183
B                9.5444872566        3.6722633348       11.7893369146
B                7.9499323196        4.5914588533       11.7946219256
Zr               7.9555163391        2.7494278434       13.5431938409
B                9.5522105262        3.6716149559       15.3093863505
B                7.9714050824        4.5854776537       15.3049410434
Zr               7.9707428157        2.7441347266       17.0994682337
B                9.5488312609        3.6592800232       18.7889989786
B                7.9884378337        4.5605118631       18.7603210197
Zr               6.3621513355        5.5070894413       10.1108269590
B                7.9487404751        6.4247197362       11.7943036374
B                6.3560995201        7.3395044690       11.7949657529
Zr               6.3634818815        5.5044339982       13.5576187911
B                7.9675418028        6.4222717532       15.3110790015
B                6.3680412619        7.3409625824       15.3141202933
Zr               6.4024081579        5.4910798746       17.1160552830
B                8.0133003282        6.4404935334       18.7519260876
B                6.4735468604        7.3552837792       18.7309269969
Zr               4.7726799977        8.2615979736       10.1103889014
B                6.3568219475        9.1749724143       11.7964485078
B                4.7696069780       10.0925177657       11.7941325983
Zr               4.7701754468        8.2564559206       13.5589086251
B                6.3612709834        9.1733020110       15.3210265881
B                4.7727981399       10.0931050660       15.3177263192
Zr               4.7668850214        8.2647761401       17.1464235564
B                6.4153466965        9.1718047915       18.7379980408
B                4.7300278520       10.1108645005       18.7598734089
O                2.5308868854        6.5590394945       19.6312487494



     Writing config-only to output data dir ./tmp/pwscf.save/ :
     XML data file
     NEW-OLD atomic charge density approx. for the potential

     negative rho (up, down):  6.824E-03 0.000E+00

     total cpu time spent up to now is     1272.1 secs

     per-process dynamical memory:   518.4 Mb

     Self-consistent Calculation

     iteration #  1     ecut=    50.00 Ry     beta= 0.70
     Davidson diagonalization with overlap
     ethr =  1.00E-06,  avg # of iterations =  7.2

     negative rho (up, down):  6.851E-03 0.000E+00

     total cpu time spent up to now is     1410.2 secs

     total energy              =  -15893.75119824 Ry
     estimated scf accuracy    <       0.03270643 Ry

     iteration #  2     ecut=    50.00 Ry     beta= 0.70
     Davidson diagonalization with overlap
     ethr =  3.76E-06,  avg # of iterations =  2.2

     negative rho (up, down):  6.723E-03 0.000E+00

     total cpu time spent up to now is     1471.8 secs

     total energy              =  -15893.75432523 Ry
     estimated scf accuracy    <       0.00316853 Ry

     iteration #  3     ecut=    50.00 Ry     beta= 0.70
     Davidson diagonalization with overlap
     ethr =  3.64E-07,  avg # of iterations =  3.8

     negative rho (up, down):  6.652E-03 0.000E+00

     total cpu time spent up to now is     1534.7 secs

     total energy              =  -15893.75445840 Ry
     estimated scf accuracy    <       0.00037716 Ry

     iteration #  4     ecut=    50.00 Ry     beta= 0.70
     Davidson diagonalization with overlap
     ethr =  4.34E-08,  avg # of iterations =  4.0

     negative rho (up, down):  6.616E-03 0.000E+00

     total cpu time spent up to now is     1603.2 secs

     total energy              =  -15893.75451044 Ry
     estimated scf accuracy    <       0.00006745 Ry

     iteration #  5     ecut=    50.00 Ry     beta= 0.70
     Davidson diagonalization with overlap
     ethr =  7.75E-09,  avg # of iterations =  3.5

     negative rho (up, down):  6.603E-03 0.000E+00

     total cpu time spent up to now is     1669.1 secs

     total energy              =  -15893.75451498 Ry
     estimated scf accuracy    <       0.00000605 Ry

     iteration #  6     ecut=    50.00 Ry     beta= 0.70
     Davidson diagonalization with overlap
     ethr =  6.95E-10,  avg # of iterations =  5.0

     negative rho (up, down):  6.612E-03 0.000E+00

     total cpu time spent up to now is     1750.0 secs

     total energy              =  -15893.75451657 Ry
     estimated scf accuracy    <       0.00000210 Ry

     iteration #  7     ecut=    50.00 Ry     beta= 0.70
     Davidson diagonalization with overlap
     ethr =  2.41E-10,  avg # of iterations =  2.0

     negative rho (up, down):  6.634E-03 0.000E+00

     total cpu time spent up to now is     1810.2 secs

     total energy              =  -15893.75451657 Ry
     estimated scf accuracy    <       0.00000067 Ry

     iteration #  8     ecut=    50.00 Ry     beta= 0.70
     Davidson diagonalization with overlap
     ethr =  7.66E-11,  avg # of iterations =  2.0

     negative rho (up, down):  6.653E-03 0.000E+00

     total cpu time spent up to now is     1871.4 secs

     total energy              =  -15893.75451657 Ry
     estimated scf accuracy    <       0.00000022 Ry

     iteration #  9     ecut=    50.00 Ry     beta= 0.70
     Davidson diagonalization with overlap
     ethr =  2.48E-11,  avg # of iterations =  2.0

     negative rho (up, down):  6.695E-03 0.000E+00

     total cpu time spent up to now is     1931.6 secs

     total energy              =  -15893.75451649 Ry
     estimated scf accuracy    <       0.00000011 Ry

     iteration # 10     ecut=    50.00 Ry     beta= 0.70
     Davidson diagonalization with overlap
     ethr =  1.29E-11,  avg # of iterations =  2.0

     negative rho (up, down):  6.865E-03 0.000E+00

     total cpu time spent up to now is     1990.2 secs

     End of self-consistent calculation

          k = 0.0000 0.0000 0.0000 (162831 PWs)   bands (ev):

   -46.3637 -46.3156 -46.3130 -46.3118 -46.3101 -46.3093 -46.3064 -46.2639
   -46.2612 -46.2593 -46.2582 -46.2564 -46.2551 -46.2546 -46.2540 -46.2535
   -46.1292 -45.9139 -45.8685 -45.8595 -45.8591 -45.8491 -45.8484 -45.8429
   -45.8173 -45.8070 -45.8002 -45.7997 -45.7926 -45.7904 -45.7882 -45.7849
   -45.7843 -45.7831 -45.7717 -45.7276 -45.6911 -45.6531 -45.6511 -45.6478
   -45.6168 -45.6151 -45.6115 -45.5873 -45.5683 -45.5608 -45.5580 -45.5480
   -24.7853 -24.7845 -24.7829 -24.6967 -24.6345 -24.6333 -24.6325 -24.6322
   -24.6315 -24.6303 -24.6193 -24.6162 -24.6159 -24.6138 -24.6133 -24.6107
   -24.5298 -24.5258 -24.5227 -24.5223 -24.5207 -24.5200 -24.5196 -24.5181
   -24.5174 -24.4616 -24.4565 -24.4555 -24.4469 -24.4031 -24.3780 -24.3765
   -24.3753 -24.3749 -24.3738 -24.3734 -24.3712 -24.3120 -24.3099 -24.3089
   -24.3085 -24.3077 -24.3068 -24.2928 -24.2926 -24.2922 -24.2910 -24.2862
   -24.2839 -24.2786 -24.2760 -24.2007 -24.1974 -24.1818 -24.1807 -24.1800
   -24.1784 -24.1712 -24.1705 -24.1409 -24.1404 -24.1392 -24.1366 -24.1202
   -24.1187 -24.1146 -24.1024 -24.0973 -24.0955 -24.0823 -24.0742 -24.0732
   -24.0675 -24.0653 -24.0651 -24.0564 -24.0482 -24.0467 -24.0461 -24.0450
   -24.0433 -24.0432 -24.0422 -24.0280 -24.0271 -24.0269 -24.0231 -24.0229
   -24.0200 -24.0024 -23.9874 -23.9696 -23.9672 -23.9538 -23.9487 -23.9485
   -23.9485 -23.9483 -23.9472 -23.9471 -23.9429 -23.9389 -23.9359 -23.9246
   -23.9192 -23.8848 -23.8783 -23.8688 -23.8522 -23.8503 -23.8462 -23.8364
   -23.8350 -23.8299 -23.8268 -23.8203 -23.8051 -23.7963 -23.7746 -23.7645
   -23.7640 -23.7628 -23.7602 -23.7597 -23.7267 -23.6677 -23.6672 -23.6657
   -23.6624 -23.6608 -23.6588 -23.6061 -23.5977 -23.5833 -23.5612 -23.5612
   -23.5256 -23.5143 -23.4837 -23.4618 -23.4455 -23.4439 -23.3634 -23.3621
   -18.9034  -9.6351  -8.7454  -8.5987  -8.5932  -8.5856  -8.5838  -8.5829
    -8.5792  -8.0941  -8.0382  -8.0323  -8.0304  -8.0257  -8.0192  -7.8310
    -7.4080  -6.9881  -6.9850  -6.9767  -6.9765  -6.9758  -6.9735  -6.9585
    -6.9550  -6.9546  -6.8759  -6.7982  -6.7940  -6.7846  -6.7787  -6.7772
    -6.7752  -6.7734  -6.7562  -6.7365  -6.5960  -6.4980  -6.3001  -6.2819
    -6.2746  -5.9124  -5.9069  -5.9038  -5.5984  -5.5339  -5.4031  -5.3673
    -5.2513  -5.1585  -5.0690  -5.0677  -5.0500  -5.0466  -4.7496  -4.6501
    -4.5540  -4.5536  -4.5525  -4.5521  -4.5501  -4.5482  -4.2094  -4.2031
    -4.1925  -4.1826  -4.1820  -4.1758  -4.0285  -3.7734  -3.6861  -3.6181
    -3.1967  -3.1246  -3.0307  -3.0072  -2.9129  -2.8570  -2.8547  -2.8527
    -2.8519  -2.8513  -2.8500  -2.7105  -2.6986  -2.6969  -2.6906  -2.6880
    -2.6870  -2.6672  -2.5886  -2.4314  -2.4185  -2.4166  -2.4107  -2.4102
    -2.4054  -2.4027  -2.3906  -2.3877  -2.3773  -2.3545  -2.3360  -2.2293
    -2.1579  -2.1553  -2.1330  -2.1316  -2.1280  -2.1048  -2.0117  -1.6912
    -1.6848  -1.6798  -1.3139  -1.2600  -1.2487  -1.2320  -1.2213  -1.2146
    -1.1848  -1.1690  -1.1574  -1.1326  -0.9969  -0.9900  -0.9686  -0.9548
    -0.9501  -0.9400  -0.9260  -0.9233  -0.9046  -0.8888  -0.7599  -0.7501
    -0.7499  -0.7494  -0.7480  -0.7470  -0.7431  -0.7352  -0.7120  -0.7108
    -0.7049  -0.5628  -0.5613  -0.5604  -0.5589  -0.5560  -0.5549  -0.5274
    -0.4664  -0.3776  -0.2815  -0.2692  -0.2611  -0.2549  -0.2508  -0.2453
    -0.2297  -0.2270  -0.2197  -0.2139  -0.0728  -0.0083  -0.0064   0.0901
     0.0961   0.1108   0.1484   0.1735   0.1882   0.1927   0.1976   0.2043
     0.2052   0.2099   0.2130   0.2141   0.2163   0.2169   0.2268   0.2369
     0.2383   0.2431   0.2639   0.3422   0.4376   0.4496   0.6776   0.7273
     0.7963   0.9018   0.9049   0.9310   0.9339   0.9384   0.9460   0.9511
     0.9778   0.9856   0.9894   0.9917   0.9980   0.9986   1.0029   1.0049
     1.0135   1.0576   1.1603   1.1631   1.1633   1.1721   1.1740   1.1831
     1.3656   1.4509   1.6696   1.7162   1.8712   1.8857   1.9098   1.9506
     1.9514   1.9531   1.9533   1.9548   1.9579   2.0029   2.0386   2.0858
     2.2289   2.2449   2.2758   2.2777   2.2790   2.2810   2.2831   2.2835
     2.4039   2.4198   2.5022   2.5094   2.5191   2.5320   2.5733   2.5744
     2.5828   2.5958   2.6124   2.6542   2.6735   2.9394   3.1596   3.2951
     3.2952   3.2979   3.3078   3.3211   3.5149   3.5156   3.5762   3.6394
     3.6533   3.7183   3.8351   3.8439   3.8663   3.8669   3.8683   3.8710
     3.8754   3.8755   3.8788   3.8841   3.8864   3.9023   3.9369   3.9562
     4.2129   4.2824   4.3035   4.3449   4.3607   4.3712   4.7051   4.7184
     4.7288   4.7480   4.7519   4.7595   4.7654   4.7662   4.7800   4.7821
     4.7997   4.8362   4.8844   4.8906   4.9023   4.9087   4.9104   4.9303
     4.9495   4.9573   4.9711   4.9792   4.9859   4.9986   5.0011   5.0022
     5.0053   5.0071   5.0120   5.0162   5.1162   5.2395   5.2584   5.2684
     5.2775   5.2876   5.2913   5.2973   5.3026   5.3117   5.3209   5.3354
     5.4092   5.4928

          k = 0.0000-0.5774 0.0000 (163042 PWs)   bands (ev):

   -46.3498 -46.3470 -46.3229 -46.3213 -46.2868 -46.2855 -46.2848 -46.2812
   -46.2747 -46.2720 -46.2607 -46.2568 -46.2562 -46.2551 -46.2464 -46.2451
   -46.1293 -45.9057 -45.8877 -45.8667 -45.8651 -45.8377 -45.8287 -45.8267
   -45.8238 -45.8158 -45.8055 -45.8031 -45.7997 -45.7938 -45.7849 -45.7839
   -45.7812 -45.7788 -45.7721 -45.7286 -45.6884 -45.6604 -45.6509 -45.6453
   -45.6175 -45.6126 -45.6036 -45.5944 -45.5687 -45.5633 -45.5559 -45.5473
   -24.7230 -24.7205 -24.7197 -24.7191 -24.6741 -24.6730 -24.6715 -24.6705
   -24.6355 -24.6347 -24.6322 -24.6306 -24.5873 -24.5864 -24.5853 -24.5830
   -24.5475 -24.5443 -24.5271 -24.5249 -24.5236 -24.5232 -24.5224 -24.5221
   -24.5209 -24.5203 -24.5063 -24.5050 -24.4447 -24.4105 -24.4082 -24.3996
   -24.3900 -24.3849 -24.3794 -24.3783 -24.3544 -24.3366 -24.3266 -24.2948
   -24.2938 -24.2765 -24.2743 -24.2543 -24.2473 -24.2239 -24.2133 -24.2119
   -24.2110 -24.2104 -24.2100 -24.2035 -24.1990 -24.1977 -24.1969 -24.1957
   -24.1947 -24.1915 -24.1587 -24.1457 -24.1414 -24.1409 -24.1407 -24.1401
   -24.1396 -24.1387 -24.1276 -24.1259 -24.1159 -24.1139 -24.1112 -24.1068
   -24.1017 -24.0974 -24.0892 -24.0805 -24.0781 -24.0768 -24.0759 -24.0657
   -24.0628 -24.0584 -24.0544 -24.0523 -24.0471 -24.0443 -24.0415 -24.0395
   -24.0345 -24.0273 -24.0191 -24.0129 -23.9784 -23.9759 -23.9723 -23.9668
   -23.9397 -23.9245 -23.9183 -23.9141 -23.9139 -23.9005 -23.8870 -23.8836
   -23.8761 -23.8693 -23.8498 -23.8439 -23.8392 -23.8367 -23.8350 -23.8322
   -23.8214 -23.8182 -23.8078 -23.7854 -23.7664 -23.7657 -23.7650 -23.7642
   -23.7501 -23.7391 -23.7291 -23.7067 -23.6960 -23.6916 -23.6589 -23.6573
   -23.6433 -23.6383 -23.6297 -23.6140 -23.5966 -23.5870 -23.5867 -23.5839
   -23.5458 -23.5401 -23.5193 -23.4781 -23.4729 -23.4351 -23.4207 -23.3764
   -18.9034  -9.3575  -9.3517  -8.8367  -8.8260  -8.5503  -8.5445  -8.2174
    -8.1824  -7.9168  -7.8986  -7.8976  -7.8917  -7.8562  -7.5875  -7.5837
    -7.5794  -7.5716  -7.5047  -7.5003  -7.3391  -7.3328  -7.2521  -7.2302
    -6.9631  -6.9609  -6.9558  -6.9542  -6.8585  -6.8408  -6.6520  -6.6482
    -6.6386  -6.6245  -6.4125  -6.3381  -6.3354  -6.2986  -6.1496  -6.0983
    -5.9731  -5.9419  -5.7663  -5.7601  -5.4701  -5.4578  -5.4310  -5.4286
    -5.3049  -5.2553  -5.1954  -5.1904  -5.0179  -5.0170  -4.9930  -4.9640
    -4.6033  -4.5902  -4.5737  -4.5556  -4.4777  -4.4119  -4.4103  -4.3211
    -4.0763  -3.9652  -3.9361  -3.9193  -3.6868  -3.6077  -3.5328  -3.5323
    -3.5318  -3.5314  -3.4308  -3.3569  -3.2876  -3.2531  -3.2468  -3.2410
    -3.2048  -3.1979  -3.1923  -3.1827  -3.0431  -2.9544  -2.6921  -2.6319
    -2.5828  -2.5808  -2.4500  -2.4292  -2.1735  -2.0988  -2.0926  -2.0819
    -2.0784  -2.0665  -1.9817  -1.9117  -1.8977  -1.8921  -1.8914  -1.8335
    -1.7752  -1.7667  -1.7620  -1.7525  -1.7246  -1.7217  -1.6858  -1.6504
    -1.6151  -1.6110  -1.5910  -1.5898  -1.5803  -1.5578  -1.5265  -1.5217
    -1.4474  -1.4309  -1.1984  -1.1853  -1.1681  -1.1502  -1.1342  -1.1117
    -1.0545  -0.9991  -0.8658  -0.8346  -0.8222  -0.8105  -0.7756  -0.7616
    -0.7601  -0.7571  -0.7523  -0.7495  -0.7459  -0.7411  -0.7365  -0.7310
    -0.7218  -0.6997  -0.6601  -0.6469  -0.5962  -0.5900  -0.4767  -0.4030
    -0.3985  -0.3904  -0.3805  -0.3545  -0.3359  -0.2732  -0.2320  -0.2303
    -0.2175  -0.1893  -0.1825  -0.1777  -0.1515  -0.1244  -0.1123  -0.0998
    -0.0669   0.0180   0.0323   0.0749   0.1081   0.1208   0.1269   0.1956
     0.2060   0.2093   0.2114   0.2446   0.2797   0.2945   0.3446   0.4075
     0.4168   0.4345   0.4513   0.4554   0.4771   0.4822   0.4846   0.4933
     0.4995   0.5580   0.6078   0.6711   0.6819   0.6889   0.6947   0.7680
     0.8580   0.9059   0.9779   1.0142   1.0419   1.0835   1.2207   1.2349
     1.2522   1.2745   1.2772   1.2837   1.2866   1.2954   1.3015   1.3346
     1.3875   1.4374   1.4799   1.5521   1.6583   1.7426   1.7750   1.9746
     1.9942   1.9983   2.0826   2.1028   2.1326   2.1380   2.1874   2.2342
     2.2521   2.2647   2.2699   2.3110   2.3187   2.3579   2.3877   2.4033
     2.4597   2.4708   2.4788   2.5404   2.5743   2.5837   2.6360   2.6421
     2.6434   2.6811   2.7410   2.7432   2.8746   2.9429   2.9439   2.9466
     2.9471   2.9587   2.9840   3.1640   3.2033   3.2701   3.3625   3.6697
     3.6959   3.7225   3.7397   3.7463   3.7557   3.7627   3.7657   3.8071
     3.8308   3.8661   3.8836   3.9299   3.9873   4.0039   4.0304   4.0514
[...]
     atom   62 type  2   force =    -0.00092377   -0.00035180    0.00007126
     atom   63 type  2   force =    -0.00071436   -0.00006359   -0.00026889
     atom   64 type  1   force =     0.00001251    0.00005879    0.00005696
     atom   65 type  2   force =     0.00000789   -0.00000674   -0.00000774
     atom   66 type  2   force =     0.00016021   -0.00001199    0.00003699
     atom   67 type  1   force =    -0.00010574    0.00002282   -0.00000132
     atom   68 type  2   force =     0.00013538   -0.00024170    0.00005392
     atom   69 type  2   force =    -0.00006061   -0.00004301   -0.00007127
     atom   70 type  1   force =     0.00053396    0.00000467   -0.00006086
     atom   71 type  2   force =     0.00015357   -0.00075552   -0.00013901
     atom   72 type  2   force =     0.00029349    0.00010670    0.00015669
     atom   73 type  1   force =     0.00001960    0.00000417    0.00010029
     atom   74 type  2   force =    -0.00005144   -0.00014765    0.00002185
     atom   75 type  2   force =    -0.00001691   -0.00004998    0.00005566
     atom   76 type  1   force =    -0.00002103   -0.00005521    0.00017700
     atom   77 type  2   force =    -0.00010319    0.00001199   -0.00013013
     atom   78 type  2   force =    -0.00006360    0.00004476    0.00025702
     atom   79 type  1   force =     0.00014146   -0.00028308    0.00020588
     atom   80 type  2   force =    -0.00036413   -0.00019633    0.00000432
     atom   81 type  2   force =     0.00021450    0.00028866    0.00005685
     atom   82 type  1   force =    -0.00007833    0.00015142   -0.00002469
     atom   83 type  2   force =    -0.00005434   -0.00000898    0.00007408
     atom   84 type  2   force =     0.00002748    0.00008768   -0.00005379
     atom   85 type  1   force =    -0.00015644    0.00011983   -0.00008387
     atom   86 type  2   force =    -0.00046372    0.00014486   -0.00001771
     atom   87 type  2   force =     0.00010308   -0.00008250    0.00016596
     atom   88 type  1   force =    -0.00005858    0.00015862   -0.00024486
     atom   89 type  2   force =     0.00021804   -0.00008550    0.00008955
     atom   90 type  2   force =    -0.00028995    0.00018675    0.00023208
     atom   91 type  1   force =    -0.00009770    0.00010277    0.00016992
     atom   92 type  2   force =     0.00001989    0.00006005   -0.00010364
     atom   93 type  2   force =    -0.00006703    0.00008992   -0.00012413
     atom   94 type  1   force =    -0.00007685    0.00023485    0.00005031
     atom   95 type  2   force =     0.00008362    0.00018535    0.00018075
     atom   96 type  2   force =     0.00020732    0.00005318   -0.00022255
     atom   97 type  1   force =     0.00046132   -0.00085774    0.00089962
     atom   98 type  2   force =     0.00002698    0.00018759   -0.00016403
     atom   99 type  2   force =    -0.00005460   -0.00021939   -0.00007453
     atom  100 type  1   force =    -0.00000639   -0.00002729   -0.00007288
     atom  101 type  2   force =    -0.00000477   -0.00002592    0.00010597
     atom  102 type  2   force =    -0.00003245   -0.00003313   -0.00000960
     atom  103 type  1   force =     0.00013583   -0.00027107   -0.00012830
     atom  104 type  2   force =     0.00020996   -0.00030223   -0.00005762
     atom  105 type  2   force =     0.00000243   -0.00017411    0.00009364
     atom  106 type  1   force =     0.00017141   -0.00002994   -0.00009051
     atom  107 type  2   force =     0.00031431    0.00071005   -0.00029709
     atom  108 type  2   force =     0.00053001   -0.00028529   -0.00005477
     atom  109 type  1   force =    -0.00000084    0.00001010    0.00007995
     atom  110 type  2   force =    -0.00000337   -0.00006947   -0.00006593
     atom  111 type  2   force =    -0.00002423   -0.00011911   -0.00004965
     atom  112 type  1   force =    -0.00000668    0.00013186    0.00002678
     atom  113 type  2   force =    -0.00003877    0.00009151   -0.00005837
     atom  114 type  2   force =    -0.00023789    0.00008586   -0.00013313
     atom  115 type  1   force =    -0.00023310   -0.00051573    0.00008537
     atom  116 type  2   force =    -0.00021205    0.00005247   -0.00005662
     atom  117 type  2   force =    -0.00050169    0.00009932    0.00019656
     atom  118 type  1   force =    -0.00005512    0.00001933    0.00007745
     atom  119 type  2   force =    -0.00003036    0.00006593   -0.00005684
     atom  120 type  2   force =    -0.00005286    0.00001234   -0.00004270
     atom  121 type  1   force =    -0.00002133   -0.00003851    0.00009454
     atom  122 type  2   force =     0.00004996    0.00013754    0.00003762
     atom  123 type  2   force =    -0.00036408   -0.00002290    0.00000337
     atom  124 type  1   force =    -0.00052562   -0.00003254    0.00037410
     atom  125 type  2   force =    -0.00049998    0.00004849    0.00031535
     atom  126 type  2   force =    -0.00018978   -0.00025403    0.00021246
     atom  127 type  1   force =    -0.00012232    0.00002830   -0.00000431
     atom  128 type  2   force =     0.00001300    0.00001422   -0.00004166
     atom  129 type  2   force =     0.00000865   -0.00000156   -0.00000768
     atom  130 type  1   force =    -0.00008497   -0.00007290    0.00001741
     atom  131 type  2   force =    -0.00018980   -0.00001327    0.00012113
     atom  132 type  2   force =     0.00004604   -0.00001509    0.00002838
     atom  133 type  1   force =     0.00039291   -0.00021396   -0.00043450
     atom  134 type  2   force =     0.00030669   -0.00025047   -0.00037341
     atom  135 type  2   force =     0.00050092   -0.00008705   -0.00051026
     atom  136 type  1   force =    -0.00007872    0.00001314   -0.00002933
     atom  137 type  2   force =     0.00004103    0.00002678   -0.00008413
     atom  138 type  2   force =     0.00000498    0.00000310   -0.00005894
     atom  139 type  1   force =     0.00007178   -0.00005948   -0.00011521
     atom  140 type  2   force =    -0.00003697   -0.00018785    0.00007813
     atom  141 type  2   force =     0.00022584   -0.00009204    0.00004131
     atom  142 type  1   force =     0.00028053    0.00036589   -0.00002896
     atom  143 type  2   force =     0.00015001    0.00045422   -0.00031301
     atom  144 type  2   force =    -0.00052763    0.00047433   -0.00004652
     atom  145 type  3   force =     0.00088043   -0.00051764   -0.00009174

     Total force =     0.004329     Total SCF correction =     0.000097


     Computing stress (Cartesian axis) and pressure


     negative rho (up, down):  6.895E-03 0.000E+00
          total   stress  (Ry/bohr**3)                   (kbar)     P=       -6.39
  -0.00005414   0.00001442   0.00000013           -7.96        2.12        0.02
   0.00001442  -0.00007075  -0.00000036            2.12      -10.41       -0.05
   0.00000013  -0.00000036  -0.00000537            0.02       -0.05       -0.79

     Energy error            =      4.9E-05 Ry
     Gradient error          =      9.2E-04 Ry/Bohr

     bfgs converged in  52 scf cycles and  51 bfgs steps
     (criteria: energy <  1.0E-04 Ry, force <  1.0E-03 Ry/Bohr)

     End of BFGS Geometry Optimization

     Final energy             =  -15893.7903971834 Ry

     File ./tmp/pwscf.bfgs deleted, as requested
Begin final coordinates

ATOMIC_POSITIONS (angstrom)
Zr               0.0070961247       -0.0092607067       10.0962293519
B                1.5977571927        0.9104163931       11.7841640480
B                0.0066772049        1.8278224882       11.7835606314
Zr               0.0085065803       -0.0084850270       13.5449428208
B                1.6033073406        0.9131047424       15.3208703509
B                0.0057860567        1.8252117029       15.3153654346
Zr               0.0277571143       -0.0016019881       17.1014767817
B                1.6065485720        0.9118744516       18.7574979937
B               -0.0236256463        1.8160497482       18.7595135853
Zr              -1.5863905049        2.7440603621       10.0962345434
B                0.0069117364        3.6644957348       11.7843439478
B               -1.5834145079        4.5815153476       11.7830882345
Zr              -1.5873753508        2.7433881269       13.5455113320
B                0.0029445947        3.6608889487       15.3209926323
B               -1.5965567598        4.5752589371       15.3108129228
Zr              -1.6050545312        2.7371181989       17.0958552730
B               -0.0488657352        3.6134217693       18.7504175294
B               -1.6378881862        4.5484533587       18.7487060865
Zr              -3.1762693811        5.4977479687       10.0963146121
B               -1.5826313036        6.4172148967       11.7843422636
B               -3.1734875278        7.3354955516       11.7835853528
Zr              -3.1776189969        5.4973131474       13.5449402572
B               -1.5883827844        6.4169145537       15.3215547579
B               -3.1758712840        7.3353886727       15.3156868283
Zr              -3.1933603446        5.4845123991       17.1017187294
B               -1.6555603651        6.3958744507       18.7495894447
B               -3.2016769875        7.3170657375       18.7583537115
Zr              -4.7640359598        8.2544333054       10.0961719003
B               -3.1723521249        9.1720836166       11.7840483849
B               -4.7635203957       10.0904818471       11.7831267164
Zr              -4.7628373177        8.2552597652       13.5454672471
B               -3.1669303895        9.1754843528       15.3207696154
B               -4.7539803464       10.0962663660       15.3149342562
Zr              -4.7486459531        8.2677928201       17.0955377123
B               -3.1699253957        9.1779481908       18.7574226902
B               -4.7561338358       10.0923451669       18.7563576492
Zr               3.1901388080       -0.0074944670       10.1009671832
B                4.7784428735        0.9096306934       11.7896052281
B                3.1874635923        1.8286304065       11.7868669731
Zr               3.1935980853       -0.0053771567       13.5550706507
B                4.7832972494        0.9125835144       15.3427757159
B                3.1924307807        1.8329847397       15.3363549376
Zr               3.1992920216       -0.0027130233       17.1334291634
B                4.7792091183        0.9102015273       18.7861836843
B                3.1668425015        1.8304165806       18.7980626539
Zr               1.5985438317        2.7456919295       10.1008296788
B                3.1863411458        3.6658197887       11.7910499010
B                1.5969055499        4.5828400395       11.7887731821
Zr               1.5985690497        2.7483105143       13.5554723398
B                3.1845710670        3.6758501333       15.3577988231
B                1.5977726320        4.5860456908       15.3401608691
Zr               1.5763661138        2.7371471584       17.1157840758
B                3.1336680883        3.6622710728       18.8038135774
B                1.4820855586        4.4536763923       18.8286885203
Zr               0.0084400498        5.5003558386       10.1000705735
B                1.5972493817        6.4176654415       11.7915778896
B                0.0077405803        7.3348881660       11.7882211517
Zr               0.0078144434        5.5008344924       13.5606934354
B                1.5952961605        6.4184409626       15.3703743487
B                0.0098361317        7.3358998212       15.3410873305
Zr              -0.0514644159        5.4670939017       17.0931763616
B                1.2011449303        6.1895693196       19.0676552153
B               -0.1632333654        7.3012272320       18.8299290765
Zr              -1.5823247536        8.2547729264       10.1004519770
B                0.0082163307        9.1699199084       11.7906217187
B               -1.5823515463       10.0896972727       11.7867492893
Zr              -1.5801233988        8.2540750586       13.5553889520
B                0.0155330990        9.1647627092       15.3582602649
B               -1.5752960462       10.0921638846       15.3363655754
Zr              -1.6033605194        8.2412056160       17.1155037051
B               -0.0237176978        9.1290727467       18.8063314472
B               -1.5918092717       10.0717380611       18.7985357462
Zr               6.3670172737       -0.0107589573       10.1015272109
B                7.9555430142        0.9063606913       11.7867713711
B                6.3644163699        1.8252827060       11.7896460739
Zr               6.3687330550       -0.0131134807       13.5633373591
B                7.9508539521        0.9016145809       15.3364989465
B                6.3602724740        1.8229808960       15.3427388869
Zr               6.3816492414       -0.0347967938       17.1679411774
B                7.9768959258        0.9057986459       18.7993114282
B                6.3643864739        1.8251870437       18.7867358863
Zr               4.7759969518        2.7451109153       10.1021083926
B                6.3640238893        3.6626408600       11.7869121515
B                4.7736486648        4.5822668260       11.7909971898
Zr               4.7745226209        2.7481835501       13.5639071678
B                6.3582438388        3.6608483734       15.3363593815
B                4.7656437977        4.5889597437       15.3577632770
Zr               4.7613522631        2.7713861080       17.1695950037
B                6.3735210560        3.6814191277       18.7987681170
B                4.8022294111        4.6266112633       18.8040881064
Zr               3.1862092288        5.4990148781       10.1001705750
B                4.7741750350        6.4173084522       11.7888045342
B                3.1850265830        7.3344255470       11.7916394462
Zr               3.1832288278        5.5037577793       13.5723302704
B                4.7704812645        6.4179208234       15.3404999123
B                3.1846619832        7.3360353865       15.3708129849
Zr               3.1740450606        5.5193034166       17.2117550046
B                4.9430546104        6.4518919618       18.8302094695
B                3.5820314537        7.5649425713       19.0701731597
Zr               1.5961277270        8.2529617206       10.1007934271
B                3.1853299445        9.1695576397       11.7882563122
B                1.5959383318       10.0866156894       11.7906234598
Zr               1.5981313745        8.2494408895       13.5724484279
B                3.1832547476        9.1678845803       15.3414367928
B                1.5972273263       10.0775881675       15.3582340358
Zr               1.6049934541        8.2368075259       17.2158508949
B                3.3006391103        9.3004644513       18.8309439514
B                1.6476870992       10.0932021460       18.8062282716
Zr               9.5444401321       -0.0111135254       10.1003142009
B               11.1361581078        0.9070407653       11.7835729797
B                9.5450888625        1.8243603746       11.7840548717
Zr               9.5443902741       -0.0134643523       13.5554171425
B               11.1381374038        0.9087603513       15.3157688398
B                9.5402518947        1.8214824282       15.3207883032
Zr               9.5675930207       -0.0001122597       17.1160003990
B               11.1671809310        0.9219690120       18.7587680118
B                9.5393318077        1.8249737819       18.7581013691
Zr               7.9525522996        2.7420698082       10.1009018145
B                9.5452649491        3.6615698118       11.7831664097
B                7.9538167479        4.5801780212       11.7841483393
Zr               7.9495032717        2.7404582807       13.5551356646
B                9.5360029299        3.6566317286       15.3148855723
B                7.9492965699        4.5771292547       15.3209081959
Zr               7.9446883798        2.7368198681       17.1329419968
B                9.5403965125        3.6564016897       18.7555326327
B                7.9483738884        4.5731369189       18.7576505428
Zr               6.3642454022        5.4972148093       10.1006507913
B                7.9548331965        6.4168215116       11.7835948748
B                6.3642420725        7.3350419048       11.7844201706
Zr               6.3620411531        5.4986126994       13.5555382855
B                7.9576536666        6.4169543497       15.3154074282
B                6.3693073157        7.3365438955       15.3210470507
Zr               6.3822987353        5.5126893345       17.1160392509
B                7.9799832375        6.4375970736       18.7596369129
B                6.4359944881        7.3577584789       18.7511957872
Zr               4.7737203740        8.2517165473       10.0999141659
B                6.3651815969        9.1707149202       11.7831438651
B                4.7750345489       10.0878743606       11.7844014982
Zr               4.7734921807        8.2523519330       13.5610110965
B                6.3776606291        9.1789325554       15.3109057775
B                4.7784614761       10.0925126937       15.3216179990
Zr               4.8321960034        8.2857818111       17.0931082959
B                6.4209813673        9.2009563584       18.7497315085
B                4.8313605747       10.1392076718       18.7498320714
O                2.3883507308        6.8818257151       19.0904375810
End final coordinates



     Writing all to output data dir ./tmp/pwscf.save/ :
     XML data file, charge density, pseudopotentials, collected wavefunctions

     init_run     :     46.24s CPU     48.95s WALL (       1 calls)
     electrons    :  16461.86s CPU  17464.10s WALL (      26 calls)
     update_pot   :     25.22s CPU     26.34s WALL (      25 calls)
     forces       :    491.57s CPU    511.55s WALL (      26 calls)
     stress       :   1678.72s CPU   1709.17s WALL (      26 calls)

     Called by init_run:
     wfcinit      :     39.45s CPU     41.56s WALL (       1 calls)
     potinit      :      1.62s CPU      1.79s WALL (       1 calls)
     hinit0       :      1.95s CPU      2.05s WALL (       1 calls)

     Called by electrons:
     c_bands      :  14370.60s CPU  15073.38s WALL (     246 calls)
     sum_band     :   1470.72s CPU   1630.07s WALL (     246 calls)
     v_of_rho     :    104.51s CPU    112.77s WALL (     267 calls)
     newd         :    164.54s CPU    212.71s WALL (     267 calls)
     PAW_pot      :    106.75s CPU    107.77s WALL (     292 calls)
     mix_rho      :    269.74s CPU    349.71s WALL (     246 calls)

     Called by c_bands:
     init_us_2    :    232.65s CPU    236.57s WALL (    1140 calls)
     cegterg      :  13897.71s CPU  14533.37s WALL (     493 calls)

     Called by *egterg:
     cdiaghg      :    343.04s CPU    363.34s WALL (    2341 calls)
     h_psi        :   7597.05s CPU   8086.06s WALL (    2404 calls)
     s_psi        :   1678.50s CPU   1690.33s WALL (    2404 calls)
     g_psi        :     25.94s CPU     26.50s WALL (    1909 calls)

     Called by h_psi:
     h_psi:calbec :   1757.83s CPU   1781.40s WALL (    2404 calls)
     vloc_psi     :   4106.72s CPU   4530.69s WALL (    2404 calls)
     add_vuspsi   :   1687.51s CPU   1699.59s WALL (    2404 calls)

     General routines
     calbec       :   3747.94s CPU   3799.07s WALL (    3830 calls)
     fft          :     83.73s CPU     96.81s WALL (    4099 calls)
     ffts         :     68.62s CPU    145.11s WALL (   26958 calls)
     fftw         :   2651.98s CPU   3093.73s WALL ( 1528176 calls)
     interpolate  :      8.40s CPU      9.39s WALL (     267 calls)

     Parallel routines

     PWSCF        :  18827.68s CPU  19917.34s WALL


   This run was terminated on:  20: 0:38  17Nov2025            

=------------------------------------------------------------------------------=
   JOB DONE.
=------------------------------------------------------------------------------=
