
     Program PWSCF v.7.4 starts on 10Jun2025 at 14: 2: 5 

     This program is part of the open-source Quantum ESPRESSO suite
     for quantum simulation of materials; please cite
         "P. Giannozzi et al., J. Phys.:Condens. Matter 21 395502 (2009);
         "P. Giannozzi et al., J. Phys.:Condens. Matter 29 465901 (2017);
         "P. Giannozzi et al., J. Chem. Phys. 152 154105 (2020);
          URL http://www.quantum-espresso.org", 
     in publications or presentations arising from this work. More details at
     http://www.quantum-espresso.org/quote

     Parallel version (MPI & OpenMP), running on       4 processor cores
     Number of MPI processes:                 1
     Threads/MPI process:                     4

     MPI processes distributed on     1 nodes
     127632 MiB available memory on the printing compute node when the environment starts

     Reading input from qe.in

     Current dimensions of program PWSCF are:
     Max number of different atomic species (ntypx) = 10
     Max number of k-points (npk) =  40000
     Max angular momentum in pseudopotentials (lmaxx) =  4
     file Zr.pbe-spn-kjpaw_psl.1.0.0.UPF: wavefunction(s)  4S 4P renormalized

     Subspace diagonalization in iterative solution of the eigenvalue problem:
     a serial algorithm will be used


     G-vector sticks info
     --------------------
     sticks:   dense  smooth     PW     G-vecs:    dense   smooth      PW
     Sum        1495     499    163                52019     9997    1967

     Using Slab Decomposition



     bravais-lattice index     =            4
     lattice parameter (alat)  =       6.0093  a.u.
     unit-cell volume          =     209.5066 (a.u.)^3
     number of atoms/cell      =            3
     number of atomic types    =            2
     number of electrons       =        18.00
     number of Kohn-Sham states=           13
     kinetic-energy cutoff     =      50.0000  Ry
     charge density cutoff     =     600.0000  Ry
     scf convergence threshold =      1.0E-08
     mixing beta               =       0.7000
     number of iterations used =            8  plain     mixing
     Exchange-correlation= SLA  PW   PBX  PBC
                           (   1   4   3   4   0   0   0)

     celldm(1)=   6.009329  celldm(2)=   0.000000  celldm(3)=   1.114780
     celldm(4)=   0.000000  celldm(5)=   0.000000  celldm(6)=   0.000000

     crystal axes: (cart. coord. in units of alat)
               a(1) = (   1.000000   0.000000   0.000000 )  
               a(2) = (  -0.500000   0.866025   0.000000 )  
               a(3) = (   0.000000   0.000000   1.114780 )  

     reciprocal axes: (cart. coord. in units 2 pi/alat)
               b(1) = (  1.000000  0.577350 -0.000000 )  
               b(2) = (  0.000000  1.154701  0.000000 )  
               b(3) = (  0.000000 -0.000000  0.897038 )  


     PseudoPot. # 1 for Zr read from file:
     /home/cganley2/qe-projects/common/pseudopotentials/SSSP_1.3.0_PBE_precision/Zr.pbe-spn-kjpaw_psl.1.0.0.UPF
     MD5 check sum: 83bf7718257ce689f169bc8534fef73a
     Pseudo is Projector augmented-wave + core cor, Zval = 12.0
     Generated using &quot;atomic&quot; code by A. Dal Corso  v.6.2.2
     Shape of augmentation charge: PSQ
     Using radial grid of 1225 points,  6 beta functions with: 
                l(1) =   0
                l(2) =   0
                l(3) =   1
                l(4) =   1
                l(5) =   2
                l(6) =   2
     Q(r) pseudized with 0 coefficients 


     PseudoPot. # 2 for B  read from file:
     /home/cganley2/qe-projects/common/pseudopotentials/SSSP_1.3.0_PBE_precision/B.pbe-n-kjpaw_psl.1.0.0.UPF
     MD5 check sum: 757e44352cacacece234d5873ff275d1
     Pseudo is Projector augmented-wave + core cor, Zval =  3.0
     Generated using &quot;atomic&quot; code by A. Dal Corso  v.6.3
     Shape of augmentation charge: PSQ
     Using radial grid of 1059 points,  4 beta functions with: 
                l(1) =   0
                l(2) =   0
                l(3) =   1
                l(4) =   1
     Q(r) pseudized with 0 coefficients 


     atomic species   valence    mass     pseudopotential
     Zr               12.00    91.22400     Zr( 1.00)
     B                 3.00    10.81000     B ( 1.00)

     No symmetry found



   Cartesian axes

     site n.     atom                  positions (alat units)
         1        Zr     tau(   1) = (   0.0000000   0.0000000   0.0000000  )
         2        B      tau(   2) = (   0.5000000   0.2886751   0.5573899  )
         3        B      tau(   3) = (  -0.0000000   0.5773503   0.5573899  )

     number of k points=    36  Gaussian smearing, width (Ry)=  0.0100
                       cart. coord. in units 2pi/alat
        k(    1) = (   0.0000000   0.0000000   0.0000000), wk =   0.0312500
        k(    2) = (   0.0000000   0.0000000   0.2242595), wk =   0.0625000
        k(    3) = (   0.0000000   0.0000000  -0.4485190), wk =   0.0312500
        k(    4) = (   0.0000000   0.2886751   0.0000000), wk =   0.0625000
        k(    5) = (   0.0000000   0.2886751   0.2242595), wk =   0.0625000
        k(    6) = (   0.0000000   0.2886751  -0.4485190), wk =   0.0625000
        k(    7) = (   0.0000000   0.2886751  -0.2242595), wk =   0.0625000
        k(    8) = (   0.0000000  -0.5773503   0.0000000), wk =   0.0312500
        k(    9) = (   0.0000000  -0.5773503   0.2242595), wk =   0.0625000
        k(   10) = (   0.0000000  -0.5773503  -0.4485190), wk =   0.0312500
        k(   11) = (   0.2500000   0.1443376   0.0000000), wk =   0.0625000
        k(   12) = (   0.2500000   0.1443376   0.2242595), wk =   0.0625000
        k(   13) = (   0.2500000   0.1443376  -0.4485190), wk =   0.0625000
        k(   14) = (   0.2500000   0.1443376  -0.2242595), wk =   0.0625000
        k(   15) = (   0.2500000   0.4330127   0.0000000), wk =   0.0625000
        k(   16) = (   0.2500000   0.4330127   0.2242595), wk =   0.0625000
        k(   17) = (   0.2500000   0.4330127  -0.4485190), wk =   0.0625000
        k(   18) = (   0.2500000   0.4330127  -0.2242595), wk =   0.0625000
        k(   19) = (   0.2500000  -0.4330127   0.0000000), wk =   0.0625000
        k(   20) = (   0.2500000  -0.4330127   0.2242595), wk =   0.0625000
        k(   21) = (   0.2500000  -0.4330127  -0.4485190), wk =   0.0625000
        k(   22) = (   0.2500000  -0.4330127  -0.2242595), wk =   0.0625000
        k(   23) = (   0.2500000  -0.1443376   0.0000000), wk =   0.0625000
        k(   24) = (   0.2500000  -0.1443376   0.2242595), wk =   0.0625000
        k(   25) = (   0.2500000  -0.1443376  -0.4485190), wk =   0.0625000
        k(   26) = (   0.2500000  -0.1443376  -0.2242595), wk =   0.0625000
        k(   27) = (  -0.5000000  -0.2886751   0.0000000), wk =   0.0312500
        k(   28) = (  -0.5000000  -0.2886751   0.2242595), wk =   0.0625000
        k(   29) = (  -0.5000000  -0.2886751  -0.4485190), wk =   0.0312500
        k(   30) = (  -0.5000000   0.0000000   0.0000000), wk =   0.0625000
        k(   31) = (  -0.5000000   0.0000000   0.2242595), wk =   0.0625000
        k(   32) = (  -0.5000000   0.0000000  -0.4485190), wk =   0.0625000
        k(   33) = (  -0.5000000   0.0000000  -0.2242595), wk =   0.0625000
        k(   34) = (  -0.5000000  -0.8660254   0.0000000), wk =   0.0312500
        k(   35) = (  -0.5000000  -0.8660254   0.2242595), wk =   0.0625000
        k(   36) = (  -0.5000000  -0.8660254  -0.4485190), wk =   0.0312500

     Dense  grid:    52019 G-vectors     FFT dimensions: (  48,  48,  54)

     Smooth grid:     9997 G-vectors     FFT dimensions: (  27,  27,  32)

     Estimated max dynamical RAM per process >     204.74 MB

     Initial potential from superposition of free atoms

     starting charge      17.9973, renormalised to      18.0000
     Starting wfcs are   21 randomized atomic wfcs
     Checking if some PAW data can be deallocated... 

     total cpu time spent up to now is        2.2 secs

     per-process dynamical memory:   218.4 Mb

     Self-consistent Calculation

     iteration #  1     ecut=    50.00 Ry     beta= 0.70
     Davidson diagonalization with overlap
     ethr =  1.00E-02,  avg # of iterations =  2.0

     total cpu time spent up to now is        3.2 secs

     total energy              =    -330.23212210 Ry
     estimated scf accuracy    <       0.27012180 Ry

     iteration #  2     ecut=    50.00 Ry     beta= 0.70
     Davidson diagonalization with overlap
     ethr =  1.50E-03,  avg # of iterations =  3.5

     total cpu time spent up to now is        4.2 secs

     total energy              =    -330.27759973 Ry
     estimated scf accuracy    <       0.31040597 Ry

     iteration #  3     ecut=    50.00 Ry     beta= 0.70
     Davidson diagonalization with overlap
     ethr =  1.50E-03,  avg # of iterations =  2.1

     total cpu time spent up to now is        5.1 secs

     total energy              =    -330.35149706 Ry
     estimated scf accuracy    <       0.00200955 Ry

     iteration #  4     ecut=    50.00 Ry     beta= 0.70
     Davidson diagonalization with overlap
     ethr =  1.12E-05,  avg # of iterations =  5.2

     total cpu time spent up to now is        6.2 secs

     total energy              =    -330.35201877 Ry
     estimated scf accuracy    <       0.00069972 Ry

     iteration #  5     ecut=    50.00 Ry     beta= 0.70
     Davidson diagonalization with overlap
     ethr =  3.89E-06,  avg # of iterations =  2.2

     total cpu time spent up to now is        7.2 secs

     total energy              =    -330.35216395 Ry
     estimated scf accuracy    <       0.00000125 Ry

     iteration #  6     ecut=    50.00 Ry     beta= 0.70
     Davidson diagonalization with overlap
     ethr =  6.93E-09,  avg # of iterations =  4.2

     total cpu time spent up to now is        8.2 secs

     total energy              =    -330.35216527 Ry
     estimated scf accuracy    <       0.00000409 Ry

     iteration #  7     ecut=    50.00 Ry     beta= 0.70
     Davidson diagonalization with overlap
     ethr =  6.93E-09,  avg # of iterations =  2.7

     total cpu time spent up to now is        9.3 secs

     total energy              =    -330.35216595 Ry
     estimated scf accuracy    <       0.00000005 Ry

     iteration #  8     ecut=    50.00 Ry     beta= 0.70
     Davidson diagonalization with overlap
     ethr =  2.62E-10,  avg # of iterations =  3.5

     total cpu time spent up to now is       10.2 secs

     End of self-consistent calculation

          k = 0.0000 0.0000 0.0000 (  1263 PWs)   bands (ev):

   -32.9963 -11.1537 -10.6520 -10.6520   3.0396  13.1056  13.1056  13.1260
    13.3710  19.0503  19.0503  19.8165  19.8167

          k = 0.0000 0.0000 0.2243 (  1239 PWs)   bands (ev):

   -32.9871 -11.3307 -10.6397 -10.6397   3.8681  10.5227  13.6789  13.6789
    15.7854  17.0030  17.0030  18.2920  18.2920

          k = 0.0000 0.0000-0.4485 (  1240 PWs)   bands (ev):

   -32.9779 -11.5001 -10.6275 -10.6275   5.0375   8.7616  14.7878  14.7878
    16.0440  16.0440  16.4403  16.4403  17.5041

          k = 0.0000 0.2887 0.0000 (  1246 PWs)   bands (ev):

   -32.9406 -11.1213 -11.0706 -10.7564   4.1976  10.5674  12.4630  13.0037
    13.7028  17.8355  18.4674  19.1214  19.3356

          k = 0.0000 0.2887 0.2243 (  1248 PWs)   bands (ev):

   -32.9319 -11.2326 -11.0970 -10.7413   4.7395  10.3475  11.7456  12.6143
    14.1670  17.0484  17.7288  20.4022  20.6263

          k = 0.0000 0.2887-0.4485 (  1248 PWs)   bands (ev):

   -32.9231 -11.3848 -11.0766 -10.7261   5.3097  10.3196  11.0171  12.2269
    14.1166  18.0939  18.3616  18.3711  19.8254

          k = 0.0000 0.2887-0.2243 (  1248 PWs)   bands (ev):

   -32.9319 -11.2326 -11.0970 -10.7413   4.7395  10.3475  11.7456  12.6143
    14.1670  17.0484  17.7288  20.4022  20.6263

          k = 0.0000-0.5774 0.0000 (  1262 PWs)   bands (ev):

   -32.8844 -11.5571 -10.9860 -10.8583   6.8061   7.2228  11.8482  12.6933
    13.0403  17.9549  17.9764  20.5306  20.6253

          k = 0.0000-0.5774 0.2243 (  1268 PWs)   bands (ev):

   -32.8761 -11.5271 -11.1282 -10.8404   6.4418   7.5992  11.7984  12.7205
    12.8578  17.2432  19.8340  20.7017  21.9052

          k = 0.0000-0.5774-0.4485 (  1236 PWs)   bands (ev):

   -32.8675 -11.4966 -11.2660 -10.8224   5.8499   8.7492  11.1526  11.5890
    13.6761  19.3915  19.7895  20.8897  21.8465

          k = 0.2500 0.1443 0.0000 (  1246 PWs)   bands (ev):

   -32.9406 -11.1213 -11.0706 -10.7564   4.1976  10.5674  12.4630  13.0037
    13.7028  17.8355  18.4674  19.1214  19.3356

          k = 0.2500 0.1443 0.2243 (  1248 PWs)   bands (ev):

   -32.9319 -11.2326 -11.0970 -10.7413   4.7395  10.3475  11.7456  12.6143
    14.1670  17.0484  17.7288  20.4022  20.6263

          k = 0.2500 0.1443-0.4485 (  1248 PWs)   bands (ev):

   -32.9231 -11.3848 -11.0766 -10.7261   5.3097  10.3196  11.0171  12.2269
    14.1166  18.0939  18.3616  18.3711  19.8254

          k = 0.2500 0.1443-0.2243 (  1248 PWs)   bands (ev):

   -32.9319 -11.2326 -11.0970 -10.7413   4.7395  10.3475  11.7456  12.6143
    14.1670  17.0484  17.7288  20.4022  20.6263

          k = 0.2500 0.4330 0.0000 (  1245 PWs)   bands (ev):

   -32.8844 -11.3901 -11.0424 -10.9862   6.1965   8.9197  10.2160  12.3738
    14.9913  16.1329  16.6840  20.7466  22.9531

          k = 0.2500 0.4330 0.2243 (  1255 PWs)   bands (ev):

   -32.8761 -11.3631 -11.1282 -11.0211   6.1887   8.7078  10.2647  12.6548
    13.5393  17.5024  19.5630  20.3976  21.8685

          k = 0.2500 0.4330-0.4485 (  1248 PWs)   bands (ev):

   -32.8676 -11.3350 -11.2665 -10.9996   6.0259   8.4720  11.0212  12.4109
    13.0029  19.2568  20.6459  20.8710  21.8218

          k = 0.2500 0.4330-0.2243 (  1255 PWs)   bands (ev):

   -32.8761 -11.3631 -11.1282 -11.0211   6.1887   8.7078  10.2647  12.6548
    13.5393  17.5024  19.5630  20.3976  21.8685

          k = 0.2500-0.4330 0.0000 (  1245 PWs)   bands (ev):

   -32.8844 -11.3901 -11.0424 -10.9862   6.1965   8.9197  10.2160  12.3738
    14.9913  16.1329  16.6840  20.7466  22.9531

          k = 0.2500-0.4330 0.2243 (  1255 PWs)   bands (ev):

   -32.8761 -11.3631 -11.1282 -11.0211   6.1887   8.7078  10.2647  12.6548
    13.5393  17.5024  19.5630  20.3976  21.8685

          k = 0.2500-0.4330-0.4485 (  1248 PWs)   bands (ev):

   -32.8676 -11.3350 -11.2665 -10.9996   6.0259   8.4720  11.0212  12.4109
    13.0029  19.2568  20.6459  20.8710  21.8218

          k = 0.2500-0.4330-0.2243 (  1255 PWs)   bands (ev):

   -32.8761 -11.3631 -11.1282 -11.0211   6.1887   8.7078  10.2647  12.6548
    13.5393  17.5024  19.5630  20.3976  21.8685

          k = 0.2500-0.1443 0.0000 (  1246 PWs)   bands (ev):

   -32.9406 -11.1213 -11.0706 -10.7564   4.1976  10.5674  12.4630  13.0037
    13.7028  17.8355  18.4674  19.1214  19.3356

          k = 0.2500-0.1443 0.2243 (  1248 PWs)   bands (ev):

   -32.9319 -11.2326 -11.0970 -10.7413   4.7395  10.3475  11.7456  12.6143
    14.1670  17.0484  17.7288  20.4022  20.6263

          k = 0.2500-0.1443-0.4485 (  1248 PWs)   bands (ev):

   -32.9231 -11.3848 -11.0766 -10.7261   5.3097  10.3196  11.0171  12.2269
    14.1166  18.0939  18.3616  18.3711  19.8254

          k = 0.2500-0.1443-0.2243 (  1248 PWs)   bands (ev):

   -32.9319 -11.2326 -11.0970 -10.7413   4.7395  10.3475  11.7456  12.6143
    14.1670  17.0484  17.7288  20.4022  20.6263

          k =-0.5000-0.2887 0.0000 (  1262 PWs)   bands (ev):

   -32.8844 -11.5571 -10.9860 -10.8583   6.8061   7.2228  11.8482  12.6933
    13.0403  17.9549  17.9764  20.5306  20.6253

          k =-0.5000-0.2887 0.2243 (  1268 PWs)   bands (ev):

   -32.8761 -11.5271 -11.1282 -10.8404   6.4418   7.5992  11.7984  12.7205
    12.8578  17.2432  19.8340  20.7017  21.9051

          k =-0.5000-0.2887-0.4485 (  1236 PWs)   bands (ev):

   -32.8675 -11.4966 -11.2660 -10.8224   5.8499   8.7492  11.1526  11.5890
    13.6761  19.3915  19.7895  20.8897  21.8465

          k =-0.5000 0.0000 0.0000 (  1245 PWs)   bands (ev):

   -32.8844 -11.3901 -11.0424 -10.9862   6.1965   8.9197  10.2160  12.3738
    14.9913  16.1329  16.6840  20.7466  22.9531

          k =-0.5000 0.0000 0.2243 (  1255 PWs)   bands (ev):

   -32.8761 -11.3631 -11.1282 -11.0211   6.1887   8.7078  10.2647  12.6548
    13.5393  17.5024  19.5630  20.3976  21.8685

          k =-0.5000 0.0000-0.4485 (  1248 PWs)   bands (ev):

   -32.8676 -11.3350 -11.2665 -10.9996   6.0259   8.4720  11.0212  12.4109
    13.0029  19.2568  20.6459  20.8710  21.8218

          k =-0.5000 0.0000-0.2243 (  1255 PWs)   bands (ev):

   -32.8761 -11.3631 -11.1282 -11.0211   6.1887   8.7078  10.2647  12.6548
    13.5393  17.5024  19.5630  20.3976  21.8685

          k =-0.5000-0.8660 0.0000 (  1262 PWs)   bands (ev):

   -32.8844 -11.5571 -10.9860 -10.8583   6.8061   7.2228  11.8482  12.6933
    13.0403  17.9549  17.9764  20.5306  20.6253

          k =-0.5000-0.8660 0.2243 (  1268 PWs)   bands (ev):

   -32.8761 -11.5271 -11.1282 -10.8404   6.4418   7.5992  11.7984  12.7205
    12.8578  17.2432  19.8340  20.7017  21.9053

          k =-0.5000-0.8660-0.4485 (  1236 PWs)   bands (ev):

   -32.8675 -11.4966 -11.2660 -10.8224   5.8499   8.7492  11.1526  11.5890
    13.6761  19.3915  19.7895  20.8897  21.8467

     the Fermi energy is    15.9928 ev

!    total energy              =    -330.35216597 Ry
     total all-electron energy =     -7297.219834 Ry
     estimated scf accuracy    <          4.8E-09 Ry
     smearing contrib. (-TS)   =      -0.00035366 Ry
     internal energy E=F+TS    =    -330.35181231 Ry

     The total energy is F=E-TS. E is the sum of the following terms:
     one-electron contribution =      -2.04996475 Ry
     hartree contribution      =      12.46260019 Ry
     xc contribution           =     -24.04780475 Ry
     ewald contribution        =     -96.27913793 Ry
     one-center paw contrib.   =    -220.43750506 Ry

     convergence has been achieved in   8 iterations

     Forces acting on atoms (cartesian axes, Ry/au):

     atom    1 type  1   force =    -0.00000023    0.00000008   -0.00000158
     atom    2 type  2   force =     0.00000015   -0.00000004    0.00000074
     atom    3 type  2   force =     0.00000008   -0.00000004    0.00000084

     Total force =     0.000002     Total SCF correction =     0.000007
     SCF correction compared to forces is large: reduce conv_thr to get better values


     Computing stress (Cartesian axis) and pressure

          total   stress  (Ry/bohr**3)                   (kbar)     P=      -14.01
  -0.00018198  -0.00000000   0.00000000          -26.77       -0.00        0.00
  -0.00000000  -0.00018197   0.00000000           -0.00      -26.77        0.00
   0.00000000   0.00000000   0.00007834            0.00        0.00       11.52


     Writing all to output data dir ./tmp/zrb2-ecutrho-12.save/ :
     XML data file, charge density, pseudopotentials, collected wavefunctions

     init_run     :      4.28s CPU      2.07s WALL (       1 calls)
     electrons    :     24.45s CPU      8.03s WALL (       1 calls)
     forces       :      0.50s CPU      0.23s WALL (       1 calls)
     stress       :      2.30s CPU      1.49s WALL (       1 calls)

     Called by init_run:
     wfcinit      :      1.59s CPU      0.42s WALL (       1 calls)
     potinit      :      1.16s CPU      0.53s WALL (       1 calls)
     hinit0       :      1.29s CPU      0.95s WALL (       1 calls)

     Called by electrons:
     c_bands      :     14.71s CPU      3.75s WALL (       8 calls)
     sum_band     :      4.13s CPU      1.72s WALL (       8 calls)
     v_of_rho     :      0.55s CPU      0.14s WALL (       9 calls)
     newd         :      1.66s CPU      1.33s WALL (       9 calls)
     PAW_pot      :      3.99s CPU      1.35s WALL (       9 calls)
     mix_rho      :      0.05s CPU      0.01s WALL (       8 calls)

     Called by c_bands:
     init_us_2    :      0.79s CPU      0.20s WALL (     684 calls)
     cegterg      :     13.98s CPU      3.57s WALL (     288 calls)

     Called by *egterg:
     cdiaghg      :      1.13s CPU      0.28s WALL (    1202 calls)
     h_psi        :     12.50s CPU      3.20s WALL (    1238 calls)
     s_psi        :      0.18s CPU      0.05s WALL (    1238 calls)
     g_psi        :      0.04s CPU      0.01s WALL (     914 calls)

     Called by h_psi:
     h_psi:calbec :      0.40s CPU      0.10s WALL (    1238 calls)
     vloc_psi     :     11.79s CPU      3.03s WALL (    1238 calls)
     add_vuspsi   :      0.23s CPU      0.06s WALL (    1238 calls)

     General routines
     calbec       :      0.74s CPU      0.18s WALL (    2138 calls)
     fft          :      1.00s CPU      0.56s WALL (     140 calls)
     ffts         :      0.57s CPU      0.29s WALL (      17 calls)
     fftw         :     10.20s CPU      2.64s WALL (   25426 calls)
     interpolate  :      0.58s CPU      0.30s WALL (       9 calls)

     Parallel routines

     PWSCF        :     32.37s CPU     12.43s WALL


   This run was terminated on:  14: 2:17  10Jun2025            

=------------------------------------------------------------------------------=
   JOB DONE.
=------------------------------------------------------------------------------=
