
     Program PWSCF v.7.4 starts on 14Nov2025 at 12:16:20 

     This program is part of the open-source Quantum ESPRESSO suite
     for quantum simulation of materials; please cite
         "P. Giannozzi et al., J. Phys.:Condens. Matter 21 395502 (2009);
         "P. Giannozzi et al., J. Phys.:Condens. Matter 29 465901 (2017);
         "P. Giannozzi et al., J. Chem. Phys. 152 154105 (2020);
          URL http://www.quantum-espresso.org", 
     in publications or presentations arising from this work. More details at
     http://www.quantum-espresso.org/quote

     Parallel version (MPI & OpenMP), running on      64 processor cores
     Number of MPI processes:                64
     Threads/MPI process:                     1

     MPI processes distributed on     1 nodes
     180093 MiB available memory on the printing compute node when the environment starts

     Reading input from zrb2-o-B-relax.in
Warning: card &CELL ignored
Warning: card / ignored
Warning: card &FCP ignored
Warning: card / ignored
Warning: card &RISM ignored
Warning: card / ignored

     Current dimensions of program PWSCF are:
     Max number of different atomic species (ntypx) = 10
     Max number of k-points (npk) =  40000
     Max angular momentum in pseudopotentials (lmaxx) =  4
     file Zr.pbe-spn-kjpaw_psl.1.0.0.UPF: wavefunction(s)  4S 4P renormalized
     file O.pbe-n-kjpaw_psl.0.1.UPF: wavefunction(s)  2P renormalized

     K-points division:     npool     =       2
     R & G space division:  proc/nbgrp/npool/nimage =      32
     Subspace diagonalization in iterative solution of the eigenvalue problem:
     one sub-group per band group will be used
     ELPA distributed-memory algorithm (size of sub-group:  5*  5 procs)


     Parallelization info
     --------------------
     sticks:   dense  smooth     PW     G-vecs:    dense   smooth      PW
     Min         498     248     64               115266    40745    5420
     Max         499     250     65               115281    40755    5437
     Sum       15937    7963   2077              3688607  1303991  173729

     Using Slab Decomposition



     bravais-lattice index     =            0
     lattice parameter (alat)  =      24.0410  a.u.
     unit-cell volume          =   27301.5549 (a.u.)^3
     number of atoms/cell      =          145
     number of atomic types    =            3
     number of electrons       =       870.00
     number of Kohn-Sham states=          522
     kinetic-energy cutoff     =      50.0000  Ry
     charge density cutoff     =     400.0000  Ry
     scf convergence threshold =      1.0E-07
     mixing beta               =       0.7000
     number of iterations used =            8  local-TF  mixing
     energy convergence thresh.=      1.0E-04
     force convergence thresh. =      1.0E-03
     Exchange-correlation= SLA  PW   PBX  PBC
                           (   1   4   3   4   0   0   0)
     nstep                     =           50


     celldm(1)=  24.041023  celldm(2)=   0.000000  celldm(3)=   0.000000
     celldm(4)=   0.000000  celldm(5)=   0.000000  celldm(6)=   0.000000

     crystal axes: (cart. coord. in units of alat)
               a(1) = (   1.000000   0.000000   0.000000 )  
               a(2) = (  -0.500000   0.866025   0.000000 )  
               a(3) = (   0.000000   0.000000   2.268810 )  

     reciprocal axes: (cart. coord. in units 2 pi/alat)
               b(1) = (  1.000000  0.577351 -0.000000 )  
               b(2) = (  0.000000  1.154701  0.000000 )  
               b(3) = (  0.000000 -0.000000  0.440760 )  


     PseudoPot. # 1 for Zr read from file:
     /home/cganley2/qe-data/pseudopotentials/SSSP_1.3.0_PBE_precision/Zr.pbe-spn-kjpaw_psl.1.0.0.UPF
     MD5 check sum: 83bf7718257ce689f169bc8534fef73a
     Pseudo is Projector augmented-wave + core cor, Zval = 12.0
     Generated using &quot;atomic&quot; code by A. Dal Corso  v.6.2.2
     Shape of augmentation charge: PSQ
     Using radial grid of 1225 points,  6 beta functions with: 
                l(1) =   0
                l(2) =   0
                l(3) =   1
                l(4) =   1
                l(5) =   2
                l(6) =   2
     Q(r) pseudized with 0 coefficients 


     PseudoPot. # 2 for B  read from file:
     /home/cganley2/qe-data/pseudopotentials/SSSP_1.3.0_PBE_precision/B.pbe-n-kjpaw_psl.1.0.0.UPF
     MD5 check sum: 757e44352cacacece234d5873ff275d1
     Pseudo is Projector augmented-wave + core cor, Zval =  3.0
     Generated using &quot;atomic&quot; code by A. Dal Corso  v.6.3
     Shape of augmentation charge: PSQ
     Using radial grid of 1059 points,  4 beta functions with: 
                l(1) =   0
                l(2) =   0
                l(3) =   1
                l(4) =   1
     Q(r) pseudized with 0 coefficients 


     PseudoPot. # 3 for O  read from file:
     /home/cganley2/qe-data/pseudopotentials/SSSP_1.3.0_PBE_precision/O.pbe-n-kjpaw_psl.0.1.UPF
     MD5 check sum: 0234752ac141de4415c5fc33072bef88
     Pseudo is Projector augmented-wave + core cor, Zval =  6.0
     Generated using "atomic" code by A. Dal Corso  v.5.0.99 svn rev. 10869
     Shape of augmentation charge: BESSEL
     Using radial grid of 1095 points,  4 beta functions with: 
                l(1) =   0
                l(2) =   0
                l(3) =   1
                l(4) =   1
     Q(r) pseudized with 0 coefficients 


     atomic species   valence    mass     pseudopotential
     Zr               12.00    91.22400     Zr( 1.00)
     B                 3.00    10.81000     B ( 1.00)
     O                 6.00    15.99900     O ( 1.00)

     No symmetry found



   Cartesian axes

     site n.     atom                  positions (alat units)
         1        Zr     tau(   1) = (   0.0000000   0.0000000   0.7935304  )
         2        B      tau(   2) = (   0.1250001   0.0721688   0.9260528  )
         3        B      tau(   3) = (  -0.0000000   0.1443377   0.9260528  )
         4        Zr     tau(   4) = (   0.0000000   0.0000000   1.0651436  )
         5        B      tau(   5) = (   0.1250001   0.0721689   1.2047800  )
         6        B      tau(   6) = (  -0.0000000   0.1443377   1.2047800  )
         7        Zr     tau(   7) = (   0.0000000   0.0000000   1.3467056  )
         8        B      tau(   8) = (   0.1250000   0.0721688   1.4758076  )
         9        B      tau(   9) = (  -0.0000000   0.1443375   1.4758076  )
        10        Zr     tau(  10) = (  -0.1249999   0.2165062   0.7935305  )
        11        B      tau(  11) = (   0.0000000   0.2886753   0.9260529  )
        12        B      tau(  12) = (  -0.1250000   0.3608440   0.9260530  )
        13        Zr     tau(  13) = (  -0.1250001   0.2165065   1.0651438  )
        14        B      tau(  14) = (   0.0000000   0.2886753   1.2047800  )
        15        B      tau(  15) = (  -0.1250001   0.3608440   1.2047801  )
        16        Zr     tau(  16) = (  -0.1250000   0.2165063   1.3467057  )
        17        B      tau(  17) = (   0.0000000   0.2886750   1.4758076  )
        18        B      tau(  18) = (  -0.1250001   0.3608437   1.4758077  )
        19        Zr     tau(  19) = (  -0.2500000   0.4330127   0.7935306  )
        20        B      tau(  20) = (  -0.1250000   0.5051815   0.9260529  )
        21        B      tau(  21) = (  -0.2499999   0.5773502   0.9260530  )
        22        Zr     tau(  22) = (  -0.2500000   0.4330127   1.0651439  )
        23        B      tau(  23) = (  -0.1250000   0.5051815   1.2047801  )
        24        B      tau(  24) = (  -0.2499999   0.5773502   1.2047801  )
        25        Zr     tau(  25) = (  -0.2500000   0.4330127   1.3467058  )
        26        B      tau(  26) = (  -0.1250000   0.5051815   1.4758076  )
        27        B      tau(  27) = (  -0.2500002   0.5773503   1.4758077  )
        28        Zr     tau(  28) = (  -0.3750001   0.6495192   0.7935305  )
        29        B      tau(  29) = (  -0.2499999   0.7216878   0.9260529  )
        30        B      tau(  30) = (  -0.3749999   0.7938566   0.9260528  )
        31        Zr     tau(  31) = (  -0.3749999   0.6495189   1.0651438  )
        32        B      tau(  32) = (  -0.2499999   0.7216878   1.2047800  )
        33        B      tau(  33) = (  -0.3749999   0.7938566   1.2047800  )
        34        Zr     tau(  34) = (  -0.3750000   0.6495191   1.3467057  )
        35        B      tau(  35) = (  -0.2500002   0.7216879   1.4758076  )
        36        B      tau(  36) = (  -0.3750000   0.7938566   1.4758076  )
        37        Zr     tau(  37) = (   0.2499998   0.0000000   0.7935305  )
        38        B      tau(  38) = (   0.3750001   0.0721688   0.9260530  )
        39        B      tau(  39) = (   0.2500001   0.1443376   0.9260529  )
        40        Zr     tau(  40) = (   0.2500001   0.0000000   1.0651438  )
        41        B      tau(  41) = (   0.3750001   0.0721688   1.2047801  )
        42        B      tau(  42) = (   0.2500001   0.1443376   1.2047800  )
        43        Zr     tau(  43) = (   0.2500000   0.0000000   1.3467057  )
        44        B      tau(  44) = (   0.3749998   0.0721686   1.4758077  )
        45        B      tau(  45) = (   0.2499998   0.1443375   1.4758076  )
        46        Zr     tau(  46) = (   0.1249999   0.2165062   0.7935305  )
        47        B      tau(  47) = (   0.2500001   0.2886752   0.9260530  )
        48        B      tau(  48) = (   0.1250000   0.3608440   0.9260530  )
        49        Zr     tau(  49) = (   0.1250001   0.2165065   1.0651438  )
        50        B      tau(  50) = (   0.2500001   0.2886752   1.2047801  )
        51        B      tau(  51) = (   0.1250000   0.3608440   1.2047801  )
        52        Zr     tau(  52) = (   0.1250000   0.2165063   1.3467057  )
        53        B      tau(  53) = (   0.2499998   0.2886751   1.4758077  )
        54        B      tau(  54) = (   0.1250001   0.3608437   1.4758077  )
        55        Zr     tau(  55) = (   0.0000000   0.4330127   0.7935306  )
        56        B      tau(  56) = (   0.1250000   0.5051815   0.9260529  )
        57        B      tau(  57) = (  -0.0000000   0.5773503   0.9260530  )
        58        Zr     tau(  58) = (   0.0000000   0.4330127   1.0651439  )
        59        B      tau(  59) = (   0.1250000   0.5051815   1.2047801  )
        60        B      tau(  60) = (  -0.0000000   0.5773503   1.2047801  )
        61        Zr     tau(  61) = (   0.0000000   0.4330124   1.3467059  )
        62        B      tau(  62) = (   0.1250000   0.5051815   1.4758076  )
        63        B      tau(  63) = (  -0.0000000   0.5773503   1.4758077  )
        64        Zr     tau(  64) = (  -0.1250000   0.6495190   0.7935306  )
        65        B      tau(  65) = (   0.0000000   0.7216878   0.9260529  )
        66        B      tau(  66) = (  -0.1249999   0.7938566   0.9260530  )
        67        Zr     tau(  67) = (  -0.1250000   0.6495190   1.0651439  )
        68        B      tau(  68) = (   0.0000000   0.7216878   1.2047801  )
        69        B      tau(  69) = (  -0.1249999   0.7938566   1.2047801  )
        70        Zr     tau(  70) = (  -0.1250002   0.6495192   1.3467059  )
        71        B      tau(  71) = (   0.0000000   0.7216879   1.4758076  )
        72        B      tau(  72) = (  -0.1250002   0.7938568   1.4758077  )
        73        Zr     tau(  73) = (   0.5000000   0.0000000   0.7935306  )
        74        B      tau(  74) = (   0.6249999   0.0721688   0.9260530  )
        75        B      tau(  75) = (   0.5000000   0.1443376   0.9260529  )
        76        Zr     tau(  76) = (   0.5000000   0.0000000   1.0651439  )
        77        B      tau(  77) = (   0.6249999   0.0721688   1.2047801  )
        78        B      tau(  78) = (   0.5000000   0.1443376   1.2047801  )
        79        Zr     tau(  79) = (   0.5000000   0.0000000   1.3467058  )
        80        B      tau(  80) = (   0.6250002   0.0721686   1.4758077  )
        81        B      tau(  81) = (   0.5000000   0.1443375   1.4758076  )
        82        Zr     tau(  82) = (   0.3750000   0.2165064   0.7935306  )
        83        B      tau(  83) = (   0.5000000   0.2886751   0.9260530  )
        84        B      tau(  84) = (   0.3750000   0.3608439   0.9260529  )
        85        Zr     tau(  85) = (   0.3750000   0.2165064   1.0651439  )
        86        B      tau(  86) = (   0.5000000   0.2886751   1.2047801  )
        87        B      tau(  87) = (   0.3750000   0.3608439   1.2047801  )
        88        Zr     tau(  88) = (   0.3749998   0.2165062   1.3467059  )
        89        B      tau(  89) = (   0.5000000   0.2886751   1.4758077  )
        90        B      tau(  90) = (   0.3750000   0.3608439   1.4758076  )
        91        Zr     tau(  91) = (   0.2500000   0.4330127   0.7935306  )
        92        B      tau(  92) = (   0.3750000   0.5051814   0.9260530  )
        93        B      tau(  93) = (   0.2499999   0.5773502   0.9260530  )
        94        Zr     tau(  94) = (   0.2500000   0.4330127   1.0651439  )
        95        B      tau(  95) = (   0.3750000   0.5051814   1.2047801  )
        96        B      tau(  96) = (   0.2499999   0.5773502   1.2047801  )
        97        Zr     tau(  97) = (   0.2500000   0.4330127   1.3467058  )
        98        B      tau(  98) = (   0.3749999   0.5051817   1.4758077  )
        99        B      tau(  99) = (   0.2500002   0.5773503   1.4758077  )
       100        Zr     tau( 100) = (   0.1250000   0.6495190   0.7935306  )
       101        B      tau( 101) = (   0.2499999   0.7216878   0.9260529  )
       102        B      tau( 102) = (   0.1249999   0.7938566   0.9260530  )
       103        Zr     tau( 103) = (   0.1250000   0.6495190   1.0651439  )
       104        B      tau( 104) = (   0.2499999   0.7216878   1.2047800  )
       105        B      tau( 105) = (   0.1249999   0.7938566   1.2047801  )
       106        Zr     tau( 106) = (   0.1250002   0.6495192   1.3467059  )
       107        B      tau( 107) = (   0.2500002   0.7216879   1.4758076  )
       108        B      tau( 108) = (   0.1250002   0.7938568   1.4758077  )
       109        Zr     tau( 109) = (   0.7500002   0.0000000   0.7935305  )
       110        B      tau( 110) = (   0.8749999   0.0721688   0.9260528  )
       111        B      tau( 111) = (   0.7499999   0.1443376   0.9260529  )
       112        Zr     tau( 112) = (   0.7499999   0.0000000   1.0651438  )
       113        B      tau( 113) = (   0.8749999   0.0721689   1.2047800  )
       114        B      tau( 114) = (   0.7499999   0.1443376   1.2047800  )
       115        Zr     tau( 115) = (   0.7500000   0.0000000   1.3467057  )
       116        B      tau( 116) = (   0.8750000   0.0721688   1.4758076  )
       117        B      tau( 117) = (   0.7500002   0.1443375   1.4758076  )
       118        Zr     tau( 118) = (   0.6250000   0.2165064   0.7935306  )
       119        B      tau( 119) = (   0.7499999   0.2886752   0.9260530  )
       120        B      tau( 120) = (   0.6250000   0.3608439   0.9260529  )
       121        Zr     tau( 121) = (   0.6250000   0.2165064   1.0651439  )
       122        B      tau( 122) = (   0.7499999   0.2886752   1.2047801  )
       123        B      tau( 123) = (   0.6250000   0.3608439   1.2047801  )
       124        Zr     tau( 124) = (   0.6250003   0.2165062   1.3467059  )
       125        B      tau( 125) = (   0.7500002   0.2886751   1.4758077  )
       126        B      tau( 126) = (   0.6250000   0.3608439   1.4758076  )
       127        Zr     tau( 127) = (   0.5000000   0.4330127   0.7935306  )
       128        B      tau( 128) = (   0.6250000   0.5051814   0.9260530  )
       129        B      tau( 129) = (   0.5000000   0.5773501   0.9260529  )
       130        Zr     tau( 130) = (   0.5000000   0.4330127   1.0651439  )
       131        B      tau( 131) = (   0.6250001   0.5051814   1.2047801  )
       132        B      tau( 132) = (   0.5000000   0.5773501   1.2047800  )
       133        Zr     tau( 133) = (   0.5000000   0.4330130   1.3467059  )
       134        B      tau( 134) = (   0.6250001   0.5051817   1.4758077  )
       135        B      tau( 135) = (   0.5000000   0.5773505   1.4758076  )
       136        Zr     tau( 136) = (   0.3750001   0.6495192   0.7935305  )
       137        B      tau( 137) = (   0.5000000   0.7216877   0.9260528  )
       138        B      tau( 138) = (   0.3749999   0.7938566   0.9260528  )
       139        Zr     tau( 139) = (   0.3749999   0.6495189   1.0651438  )
       140        B      tau( 140) = (   0.5000000   0.7216877   1.2047800  )
       141        B      tau( 141) = (   0.3749999   0.7938566   1.2047800  )
       142        Zr     tau( 142) = (   0.3750000   0.6495191   1.3467057  )
       143        B      tau( 143) = (   0.5000000   0.7216879   1.4758076  )
       144        B      tau( 144) = (   0.3750000   0.7938566   1.4758076  )
       145        O      tau( 145) = (   0.3144169   0.3144169   1.5937140  )

     number of k points=     4  Gaussian smearing, width (Ry)=  0.0100
                       cart. coord. in units 2pi/alat
        k(    1) = (   0.0000000   0.0000000   0.0000000), wk =   0.5000000
        k(    2) = (   0.0000000  -0.5773505   0.0000000), wk =   0.5000000
        k(    3) = (   0.5000000  -0.2886753   0.0000000), wk =   0.5000000
        k(    4) = (  -0.5000000  -0.2886753   0.0000000), wk =   0.5000000

     Dense  grid:  3688607 G-vectors     FFT dimensions: ( 160, 160, 360)

     Smooth grid:  1303991 G-vectors     FFT dimensions: ( 120, 120, 250)

     Estimated max dynamical RAM per process >     745.81 MB

     Estimated total dynamical RAM >      45.73 GB

     Initial potential from superposition of free atoms

     starting charge     869.8697, renormalised to     870.0000

     negative rho (up, down):  4.586E-03 0.000E+00
     Starting wfcs are 1012 randomized atomic wfcs
     Checking if some PAW data can be deallocated... 

     total cpu time spent up to now is       48.8 secs

     per-process dynamical memory:   448.0 Mb

     Self-consistent Calculation

     iteration #  1     ecut=    50.00 Ry     beta= 0.70
     Davidson diagonalization with overlap
     ethr =  1.00E-02,  avg # of iterations =  2.0

     negative rho (up, down):  6.764E-05 0.000E+00

     total cpu time spent up to now is      112.9 secs

     total energy              =  -15892.90336756 Ry
     estimated scf accuracy    <     102.45012737 Ry

     iteration #  2     ecut=    50.00 Ry     beta= 0.70
     Davidson diagonalization with overlap
     ethr =  1.00E-02,  avg # of iterations =  1.0

     negative rho (up, down):  9.650E-06 0.000E+00

     total cpu time spent up to now is      163.6 secs

     total energy              =  -15892.54147763 Ry
     estimated scf accuracy    <      13.83737779 Ry

     iteration #  3     ecut=    50.00 Ry     beta= 0.70
     Davidson diagonalization with overlap
     ethr =  1.59E-03,  avg # of iterations =  3.2

     negative rho (up, down):  3.807E-06 0.000E+00

     total cpu time spent up to now is      223.6 secs

     total energy              =  -15893.32815975 Ry
     estimated scf accuracy    <       5.51200209 Ry

     iteration #  4     ecut=    50.00 Ry     beta= 0.70
     Davidson diagonalization with overlap
     ethr =  6.34E-04,  avg # of iterations =  3.5

     negative rho (up, down):  2.518E-06 0.000E+00

     total cpu time spent up to now is      283.7 secs

     total energy              =  -15893.62090168 Ry
     estimated scf accuracy    <       1.93655386 Ry

     iteration #  5     ecut=    50.00 Ry     beta= 0.70
     Davidson diagonalization with overlap
     ethr =  2.23E-04,  avg # of iterations = 11.5

     negative rho (up, down):  4.333E-07 0.000E+00

     total cpu time spent up to now is      363.0 secs

     total energy              =  -15893.72221713 Ry
     estimated scf accuracy    <       0.48406976 Ry

     iteration #  6     ecut=    50.00 Ry     beta= 0.70
     Davidson diagonalization with overlap
     ethr =  5.56E-05,  avg # of iterations =  7.0

     negative rho (up, down):  8.944E-08 0.000E+00

     total cpu time spent up to now is      428.4 secs

     total energy              =  -15893.70303862 Ry
     estimated scf accuracy    <       0.97176097 Ry

     iteration #  7     ecut=    50.00 Ry     beta= 0.70
     Davidson diagonalization with overlap
     ethr =  5.56E-05,  avg # of iterations =  2.8

     negative rho (up, down):  4.309E-08 0.000E+00

     total cpu time spent up to now is      485.6 secs

     total energy              =  -15893.70486321 Ry
     estimated scf accuracy    <       0.22458199 Ry

     iteration #  8     ecut=    50.00 Ry     beta= 0.70
     Davidson diagonalization with overlap
     ethr =  2.58E-05,  avg # of iterations =  6.8

     negative rho (up, down):  2.040E-03 0.000E+00

     total cpu time spent up to now is      547.0 secs

     total energy              =  -15893.67701100 Ry
     estimated scf accuracy    <       0.22162975 Ry

     iteration #  9     ecut=    50.00 Ry     beta= 0.70
     Davidson diagonalization with overlap
     ethr =  2.55E-05,  avg # of iterations =  2.0

     negative rho (up, down):  4.572E-02 0.000E+00

     total cpu time spent up to now is      603.6 secs

     total energy              =  -15893.68705010 Ry
     estimated scf accuracy    <       0.19870066 Ry

     iteration # 10     ecut=    50.00 Ry     beta= 0.70
     Davidson diagonalization with overlap
     ethr =  2.28E-05,  avg # of iterations =  4.8

     negative rho (up, down):  1.432E-01 0.000E+00

     total cpu time spent up to now is      663.4 secs

     total energy              =  -15893.67651493 Ry
     estimated scf accuracy    <       0.07101741 Ry

     iteration # 11     ecut=    50.00 Ry     beta= 0.70
     Davidson diagonalization with overlap
     c_bands:  3 eigenvalues not converged
     ethr =  8.16E-06,  avg # of iterations = 14.8

     negative rho (up, down):  1.688E-01 0.000E+00

     total cpu time spent up to now is      734.7 secs

     total energy              =  -15893.67106167 Ry
     estimated scf accuracy    <       0.02864150 Ry

     iteration # 12     ecut=    50.00 Ry     beta= 0.70
     Davidson diagonalization with overlap
     ethr =  3.29E-06,  avg # of iterations =  7.0

     negative rho (up, down):  1.406E-01 0.000E+00

     total cpu time spent up to now is      797.7 secs

     total energy              =  -15893.66806832 Ry
     estimated scf accuracy    <       0.01966627 Ry

     iteration # 13     ecut=    50.00 Ry     beta= 0.70
     Davidson diagonalization with overlap
     ethr =  2.26E-06,  avg # of iterations =  5.5

     negative rho (up, down):  5.183E-02 0.000E+00

     total cpu time spent up to now is      858.4 secs

     total energy              =  -15893.66757581 Ry
     estimated scf accuracy    <       0.00396090 Ry

     iteration # 14     ecut=    50.00 Ry     beta= 0.70
     Davidson diagonalization with overlap
     ethr =  4.55E-07,  avg # of iterations =  3.5

     negative rho (up, down):  2.533E-02 0.000E+00

     total cpu time spent up to now is      920.2 secs

     total energy              =  -15893.66776894 Ry
     estimated scf accuracy    <       0.00102653 Ry

     iteration # 15     ecut=    50.00 Ry     beta= 0.70
     Davidson diagonalization with overlap
     ethr =  1.18E-07,  avg # of iterations =  3.8

     negative rho (up, down):  1.246E-02 0.000E+00

     total cpu time spent up to now is      978.8 secs

     total energy              =  -15893.66768109 Ry
     estimated scf accuracy    <       0.00030195 Ry

     iteration # 16     ecut=    50.00 Ry     beta= 0.70
     Davidson diagonalization with overlap
     ethr =  3.47E-08,  avg # of iterations =  4.2

     negative rho (up, down):  8.434E-03 0.000E+00

     total cpu time spent up to now is     1038.9 secs

     total energy              =  -15893.66768327 Ry
     estimated scf accuracy    <       0.00013564 Ry

     iteration # 17     ecut=    50.00 Ry     beta= 0.70
     Davidson diagonalization with overlap
     ethr =  1.56E-08,  avg # of iterations =  2.0

     negative rho (up, down):  6.739E-03 0.000E+00

     total cpu time spent up to now is     1096.0 secs

     total energy              =  -15893.66770739 Ry
     estimated scf accuracy    <       0.00002820 Ry

     iteration # 18     ecut=    50.00 Ry     beta= 0.70
     Davidson diagonalization with overlap
     ethr =  3.24E-09,  avg # of iterations =  5.0

     negative rho (up, down):  6.328E-03 0.000E+00

     total cpu time spent up to now is     1160.2 secs

     total energy              =  -15893.66771163 Ry
     estimated scf accuracy    <       0.00000489 Ry

     iteration # 19     ecut=    50.00 Ry     beta= 0.70
     Davidson diagonalization with overlap
     ethr =  5.62E-10,  avg # of iterations =  4.2

     negative rho (up, down):  6.461E-03 0.000E+00

     total cpu time spent up to now is     1221.8 secs

     total energy              =  -15893.66771169 Ry
     estimated scf accuracy    <       0.00000139 Ry

     iteration # 20     ecut=    50.00 Ry     beta= 0.70
     Davidson diagonalization with overlap
     ethr =  1.59E-10,  avg # of iterations =  4.0

     negative rho (up, down):  6.445E-03 0.000E+00

     total cpu time spent up to now is     1287.6 secs

     total energy              =  -15893.66771202 Ry
     estimated scf accuracy    <       0.00000045 Ry

     iteration # 21     ecut=    50.00 Ry     beta= 0.70
     Davidson diagonalization with overlap
     ethr =  5.17E-11,  avg # of iterations =  3.0

     negative rho (up, down):  6.636E-03 0.000E+00

     total cpu time spent up to now is     1347.1 secs

     End of self-consistent calculation

          k = 0.0000 0.0000 0.0000 (162831 PWs)   bands (ev):

   -46.4591 -46.4076 -46.4069 -46.4065 -46.4062 -46.4061 -46.4057 -46.3548
   -46.3546 -46.3537 -46.3531 -46.3529 -46.3528 -46.3527 -46.3526 -46.3525
   -46.0225 -45.9688 -45.9679 -45.9675 -45.9672 -45.9666 -45.9658 -45.9133
   -45.9129 -45.9122 -45.9121 -45.9115 -45.9112 -45.9107 -45.9100 -45.9090
   -45.8288 -45.8059 -45.7763 -45.7566 -45.7538 -45.7521 -45.7479 -45.7175
   -45.7155 -45.7039 -45.6986 -45.6957 -45.6948 -45.6940 -45.6905 -45.6852
   -24.8797 -24.8795 -24.8795 -24.7894 -24.7279 -24.7277 -24.7277 -24.7277
   -24.7276 -24.7275 -24.7089 -24.7085 -24.7080 -24.7076 -24.7073 -24.7071
   -24.6178 -24.6174 -24.6171 -24.6150 -24.6147 -24.6145 -24.6140 -24.6139
   -24.6136 -24.5600 -24.5599 -24.5596 -24.4714 -24.4711 -24.4710 -24.4709
   -24.4702 -24.4700 -24.4053 -24.4051 -24.4046 -24.4045 -24.4043 -24.4039
   -24.3958 -24.3955 -24.3953 -24.3953 -24.3952 -24.3948 -24.3841 -24.3804
   -24.3738 -24.3721 -24.2884 -24.2850 -24.2842 -24.2838 -24.2827 -24.2820
   -24.2361 -24.2359 -24.2354 -24.2193 -24.2152 -24.2124 -24.2000 -24.1990
   -24.1958 -24.1857 -24.1852 -24.1827 -24.1823 -24.1814 -24.1809 -24.1803
   -24.1793 -24.1770 -24.1592 -24.1413 -24.1412 -24.1412 -24.1411 -24.1410
   -24.1409 -24.1331 -24.1324 -24.1322 -24.1316 -24.1315 -24.1309 -24.0914
   -24.0718 -24.0595 -24.0554 -24.0546 -24.0541 -24.0539 -24.0537 -24.0534
   -24.0531 -24.0529 -24.0525 -24.0444 -24.0443 -23.9827 -23.9795 -23.9625
   -23.9607 -23.9595 -23.9583 -23.9559 -23.9550 -23.9500 -23.9416 -23.9385
   -23.9348 -23.9345 -23.9288 -23.9248 -23.8737 -23.8729 -23.8726 -23.8723
   -23.8584 -23.8556 -23.8504 -23.8498 -23.8461 -23.7739 -23.7736 -23.7734
   -23.7733 -23.7733 -23.7728 -23.6790 -23.6719 -23.6718 -23.6681 -23.6674
   -23.5776 -23.5762 -23.5735 -23.5664 -23.5642 -23.5595 -23.4672 -23.4636
   -14.9482  -9.7131  -8.8429  -8.6685  -8.6666  -8.6662  -8.6660  -8.6648
    -8.6637  -8.1259  -8.1218  -8.1210  -8.1205  -8.1196  -8.1190  -7.4824
    -7.0593  -7.0590  -7.0588  -7.0586  -7.0585  -7.0584  -7.0261  -7.0252
    -7.0246  -6.9182  -6.8833  -6.8600  -6.8581  -6.8558  -6.8548  -6.8532
    -6.8530  -6.8292  -6.8248  -6.8038  -6.7858  -6.3820  -6.3792  -6.3786
    -5.9812  -5.9805  -5.9797  -5.6086  -5.5243  -5.5192  -5.5071  -5.4918
    -5.4867  -5.1539  -5.1533  -5.1513  -5.0557  -5.0386  -5.0303  -4.6234
    -4.6229  -4.6227  -4.6227  -4.6226  -4.6221  -4.2632  -4.2597  -4.2583
    -4.2575  -4.2570  -4.2557  -3.8081  -3.8034  -3.7971  -3.7129  -3.1608
    -3.1517  -3.0719  -3.0619  -3.0194  -3.0173  -2.9334  -2.9323  -2.9320
    -2.9319  -2.9316  -2.9313  -2.7649  -2.7635  -2.7624  -2.7623  -2.7621
    -2.7617  -2.4859  -2.4858  -2.4857  -2.4856  -2.4853  -2.4848  -2.4661
    -2.4649  -2.4593  -2.4579  -2.4561  -2.4556  -2.2780  -2.2309  -2.2294
    -2.2193  -2.2166  -2.2152  -2.2136  -1.7537  -1.7491  -1.7477  -1.6325
    -1.5249  -1.3895  -1.3409  -1.3349  -1.3337  -1.3246  -1.3219  -1.2380
    -1.2351  -1.2289  -1.2256  -1.1372  -1.0871  -1.0373  -1.0343  -1.0290
    -1.0132  -0.9926  -0.9896  -0.9699  -0.9625  -0.9425  -0.9343  -0.8183
    -0.8143  -0.8123  -0.8120  -0.8119  -0.8117  -0.8117  -0.8113  -0.8106
    -0.6569  -0.6548  -0.6527  -0.6524  -0.6523  -0.6523  -0.6446  -0.5685
    -0.4744  -0.4119  -0.3170  -0.3163  -0.3160  -0.3145  -0.3142  -0.3122
    -0.3070  -0.3028  -0.3015  -0.2994  -0.2280  -0.0953  -0.0423  -0.0374
     0.0450   0.0856   0.0880   0.0922   0.1096   0.1115   0.1138   0.1200
     0.1207   0.1213   0.1427   0.1459   0.1464   0.1480   0.1481   0.1485
     0.1532   0.1532   0.2599   0.2764   0.2999   0.3548   0.5833   0.7881
     0.8009   0.8069   0.8661   0.8709   0.8729   0.8736   0.8740   0.8770
     0.8788   0.8856   0.8981   0.9051   0.9078   0.9092   0.9093   0.9094
     0.9166   0.9217   1.0832   1.0847   1.0850   1.0850   1.0853   1.0853
     1.1009   1.2888   1.5926   1.7408   1.7623   1.7685   1.8619   1.8624
     1.8631   1.8632   1.8632   1.8643   1.9694   1.9754   1.9866   2.0036
     2.0956   2.1452   2.1875   2.1878   2.1880   2.1887   2.1899   2.1918
     2.3411   2.4126   2.4145   2.4314   2.4390   2.4454   2.4460   2.4955
     2.5000   2.5040   2.5090   2.5098   2.5238   2.8064   3.0379   3.2037
     3.2038   3.2038   3.2500   3.2511   3.2824   3.5199   3.5375   3.5390
     3.5585   3.6989   3.7481   3.7837   3.7840   3.7841   3.7841   3.7851
     3.7851   3.7854   3.7861   3.7863   3.7883   3.8488   3.8510   3.8807
     4.0878   4.2015   4.2066   4.2501   4.2520   4.2526   4.4162   4.6772
     4.6775   4.6780   4.6783   4.6784   4.6800   4.6917   4.6923   4.6963
     4.7036   4.7157   4.7277   4.8207   4.8239   4.8254   4.8277   4.8419
     4.8465   4.8623   4.8632   4.8639   4.8665   4.8965   4.9171   4.9173
     4.9177   4.9179   4.9180   4.9182   5.0603   5.1555   5.1676   5.1936
     5.1940   5.1967   5.1970   5.1974   5.2023   5.2082   5.2167   5.2178
     5.2695   5.4533

          k = 0.0000-0.5774 0.0000 (163042 PWs)   bands (ev):

   -46.4442 -46.4434 -46.4176 -46.4174 -46.3803 -46.3801 -46.3800 -46.3796
   -46.3693 -46.3685 -46.3542 -46.3536 -46.3527 -46.3527 -46.3423 -46.3421
   -46.0066 -46.0063 -45.9789 -45.9786 -45.9400 -45.9397 -45.9395 -45.9389
   -45.9280 -45.9277 -45.9120 -45.9115 -45.9111 -45.9111 -45.8999 -45.8995
   -45.8221 -45.8120 -45.7841 -45.7696 -45.7474 -45.7428 -45.7248 -45.7227
   -45.7177 -45.7145 -45.7018 -45.6998 -45.6963 -45.6946 -45.6880 -45.6794
   -24.8166 -24.8162 -24.8156 -24.8154 -24.7676 -24.7672 -24.7656 -24.7647
   -24.7306 -24.7304 -24.7244 -24.7242 -24.6796 -24.6795 -24.6790 -24.6789
   -24.6393 -24.6384 -24.6184 -24.6181 -24.6178 -24.6178 -24.6174 -24.6169
   -24.6160 -24.6159 -24.5997 -24.5995 -24.5051 -24.5048 -24.4918 -24.4916
   -24.4914 -24.4912 -24.4373 -24.4372 -24.4009 -24.4006 -24.3711 -24.3709
   -24.3559 -24.3546 -24.3254 -24.3158 -24.3075 -24.3071 -24.3068 -24.3067
   -24.3058 -24.3042 -24.3030 -24.3028 -24.3027 -24.3025 -24.2949 -24.2927
   -24.2573 -24.2429 -24.2363 -24.2362 -24.2362 -24.2359 -24.2350 -24.2340
   -24.2321 -24.2320 -24.2124 -24.2118 -24.2115 -24.2087 -24.2079 -24.2036
   -24.1828 -24.1824 -24.1814 -24.1806 -24.1729 -24.1725 -24.1622 -24.1609
   -24.1603 -24.1591 -24.1389 -24.1364 -24.1363 -24.1299 -24.1204 -24.1137
   -24.1077 -24.1046 -24.0922 -24.0778 -24.0733 -24.0725 -24.0288 -24.0252
   -24.0224 -24.0223 -24.0045 -24.0022 -23.9923 -23.9894 -23.9725 -23.9635
   -23.9616 -23.9601 -23.9572 -23.9563 -23.9493 -23.9489 -23.9489 -23.9487
   -23.9436 -23.9302 -23.8744 -23.8742 -23.8741 -23.8740 -23.8439 -23.8437
   -23.8371 -23.8212 -23.8102 -23.8100 -23.7689 -23.7686 -23.7591 -23.7541
   -23.7428 -23.7415 -23.7019 -23.7017 -23.6833 -23.6781 -23.6690 -23.6665
   -23.6452 -23.6346 -23.6095 -23.6026 -23.5666 -23.5581 -23.5048 -23.4900
   -14.9482  -9.4335  -9.4323  -8.9095  -8.9090  -8.6438  -8.6421  -8.2838
    -8.2813  -7.9782  -7.9779  -7.9776  -7.9770  -7.6654  -7.6649  -7.6636
    -7.6624  -7.5852  -7.5849  -7.4121  -7.4113  -7.3239  -7.3162  -7.0365
    -7.0334  -7.0325  -7.0322  -7.0289  -6.9686  -6.7230  -6.7225  -6.7200
    -6.7193  -6.4084  -6.4077  -6.3945  -6.3645  -6.3590  -6.2996  -6.0798
    -6.0713  -5.8462  -5.8458  -5.6126  -5.5621  -5.5227  -5.5204  -5.5052
    -5.5050  -5.2698  -5.2670  -5.1096  -5.1009  -5.0930  -5.0926  -4.6796
    -4.6590  -4.6438  -4.6432  -4.5601  -4.5515  -4.4876  -4.4869  -4.0713
    -4.0278  -4.0235  -4.0159  -3.6287  -3.6249  -3.6048  -3.6048  -3.6044
    -3.6041  -3.5107  -3.5051  -3.3675  -3.3628  -3.3326  -3.3304  -3.2650
    -3.2630  -3.2619  -3.2617  -2.9789  -2.9221  -2.7435  -2.7397  -2.6672
    -2.6660  -2.3118  -2.2701  -2.2275  -2.2238  -2.1615  -2.1614  -2.1607
    -2.1606  -2.0223  -2.0051  -1.9583  -1.9583  -1.8487  -1.8435  -1.8372
    -1.8366  -1.8163  -1.8059  -1.7984  -1.7973  -1.7023  -1.6995  -1.6911
    -1.6908  -1.6802  -1.6756  -1.5905  -1.5887  -1.5203  -1.5018  -1.4892
    -1.4779  -1.2913  -1.2681  -1.2358  -1.2202  -1.2075  -1.2069  -1.0229
    -0.9743  -0.9475  -0.9322  -0.9215  -0.9129  -0.8564  -0.8389  -0.8369
    -0.8339  -0.8314  -0.8300  -0.8254  -0.8163  -0.8091  -0.8038  -0.8036
    -0.7992  -0.7517  -0.7462  -0.6873  -0.6741  -0.6012  -0.5005  -0.4897
    -0.4567  -0.4522  -0.4496  -0.4374  -0.4151  -0.3667  -0.3131  -0.2922
    -0.2795  -0.2786  -0.2665  -0.2580  -0.1954  -0.1931  -0.1755  -0.1602
    -0.1561  -0.0630  -0.0397  -0.0396   0.0351   0.0381   0.0662   0.1068
     0.1196   0.1236   0.1241   0.1422   0.2155   0.2157   0.2227   0.3529
     0.3613   0.3631   0.3664   0.3776   0.3834   0.3934   0.4048   0.4085
     0.4199   0.5330   0.5604   0.6005   0.6053   0.6064   0.6230   0.6971
     0.7015   0.8386   0.8648   0.9371   0.9400   0.9840   1.1116   1.1750
     1.1858   1.1878   1.1979   1.1984   1.2004   1.2022   1.2061   1.2617
     1.3270   1.3912   1.3987   1.4418   1.5263   1.6568   1.6671   1.8090
     1.9096   1.9133   2.0249   2.0275   2.0322   2.0518   2.1051   2.1356
     2.1669   2.1686   2.1828   2.1875   2.2859   2.2922   2.3358   2.3406
     2.3425   2.3435   2.4114   2.4795   2.4929   2.5015   2.5508   2.5513
     2.5612   2.5656   2.6493   2.6494   2.6940   2.8223   2.8530   2.8532
     2.8538   2.8541   3.0544   3.0729   3.1356   3.1745   3.2432   3.5507
     3.5976   3.6329   3.6615   3.6639   3.6726   3.6792   3.6827   3.6879
     3.7691   3.7699   3.8008   3.8485   3.8931   3.9178   3.9444   3.9493
     3.9746   3.9893   3.9908   4.1773   4.2432   4.3150   4.3160   4.3701
     4.4210   4.4931   4.6706   4.6709   4.6732   4.6798   4.7067   4.7088
     4.7586   4.7663   4.7847   4.7944   4.8391   4.8632   4.8890   4.9084
     5.1051   5.1075   5.1243   5.1327   5.1383   5.1496   5.1562   5.1567
     5.1682   5.1836   5.2241   5.2277   5.2351   5.2397   5.2416   5.2777
     5.2860   5.3909   5.4149   5.4193   5.4249   5.4418   5.4800   5.4898
     5.5397   5.5717

          k = 0.5000-0.2887 0.0000 (163042 PWs)   bands (ev):

   -46.4442 -46.4434 -46.4176 -46.4173 -46.3802 -46.3801 -46.3800 -46.3797
   -46.3693 -46.3685 -46.3540 -46.3538 -46.3528 -46.3526 -46.3423 -46.3421
   -46.0065 -46.0064 -45.9789 -45.9787 -45.9398 -45.9397 -45.9395 -45.9392
   -45.9279 -45.9277 -45.9118 -45.9115 -45.9113 -45.9111 -45.8998 -45.8995
   -45.8222 -45.8119 -45.7841 -45.7696 -45.7475 -45.7426 -45.7244 -45.7226
   -45.7179 -45.7150 -45.7013 -45.7002 -45.6954 -45.6950 -45.6883 -45.6793
   -24.8165 -24.8164 -24.8155 -24.8154 -24.7676 -24.7672 -24.7656 -24.7647
   -24.7306 -24.7304 -24.7243 -24.7242 -24.6796 -24.6795 -24.6790 -24.6789
   -24.6393 -24.6384 -24.6184 -24.6181 -24.6178 -24.6177 -24.6174 -24.6171
   -24.6160 -24.6158 -24.5997 -24.5995 -24.5051 -24.5048 -24.4917 -24.4916
   -24.4914 -24.4914 -24.4373 -24.4372 -24.4008 -24.4007 -24.3711 -24.3709
   -24.3559 -24.3546 -24.3257 -24.3159 -24.3074 -24.3072 -24.3068 -24.3066
   -24.3058 -24.3041 -24.3029 -24.3028 -24.3028 -24.3026 -24.2942 -24.2931
   -24.2573 -24.2426 -24.2363 -24.2362 -24.2362 -24.2359 -24.2350 -24.2340
   -24.2321 -24.2319 -24.2127 -24.2118 -24.2115 -24.2087 -24.2078 -24.2034
   -24.1830 -24.1823 -24.1812 -24.1808 -24.1729 -24.1725 -24.1622 -24.1609
   -24.1603 -24.1591 -24.1390 -24.1364 -24.1363 -24.1297 -24.1206 -24.1140
   -24.1074 -24.1044 -24.0923 -24.0776 -24.0733 -24.0725 -24.0292 -24.0250
   -24.0225 -24.0222 -24.0044 -24.0019 -23.9930 -23.9893 -23.9727 -23.9635
   -23.9615 -23.9601 -23.9568 -23.9564 -23.9492 -23.9489 -23.9489 -23.9487
   -23.9439 -23.9301 -23.8744 -23.8742 -23.8742 -23.8740 -23.8438 -23.8438
   -23.8373 -23.8211 -23.8102 -23.8100 -23.7688 -23.7686 -23.7591 -23.7545
   -23.7425 -23.7413 -23.7018 -23.7017 -23.6835 -23.6782 -23.6688 -23.6663
   -23.6456 -23.6345 -23.6096 -23.6024 -23.5669 -23.5578 -23.5050 -23.4899
   -14.9482  -9.4335  -9.4323  -8.9095  -8.9090  -8.6438  -8.6420  -8.2838
    -8.2813  -7.9781  -7.9780  -7.9776  -7.9770  -7.6653  -7.6650  -7.6635
    -7.6624  -7.5852  -7.5849  -7.4121  -7.4112  -7.3237  -7.3163  -7.0368
    -7.0334  -7.0324  -7.0323  -7.0291  -6.9684  -6.7231  -6.7225  -6.7198
    -6.7195  -6.4084  -6.4076  -6.3937  -6.3653  -6.3589  -6.2996  -6.0776
    -6.0733  -5.8461  -5.8458  -5.6136  -5.5620  -5.5226  -5.5203  -5.5052
    -5.5050  -5.2698  -5.2671  -5.1097  -5.1009  -5.0929  -5.0926  -4.6797
    -4.6590  -4.6438  -4.6432  -4.5590  -4.5520  -4.4877  -4.4869  -4.0707
    -4.0278  -4.0236  -4.0165  -3.6310  -3.6233  -3.6048  -3.6048  -3.6044
    -3.6041  -3.5103  -3.5051  -3.3674  -3.3629  -3.3326  -3.3304  -3.2650
    -3.2630  -3.2619  -3.2617  -2.9784  -2.9221  -2.7438  -2.7396  -2.6671
    -2.6661  -2.3128  -2.2699  -2.2272  -2.2237  -2.1615  -2.1614  -2.1607
    -2.1606  -2.0224  -2.0050  -1.9583  -1.9583  -1.8487  -1.8437  -1.8371
    -1.8367  -1.8163  -1.8060  -1.7978  -1.7978  -1.7018  -1.6995  -1.6914
    -1.6908  -1.6801  -1.6757  -1.5904  -1.5887  -1.5203  -1.5018  -1.4895
    -1.4781  -1.2916  -1.2681  -1.2368  -1.2200  -1.2074  -1.2070  -1.0240
    -0.9711  -0.9486  -0.9322  -0.9209  -0.9140  -0.8558  -0.8389  -0.8370
    -0.8338  -0.8314  -0.8300  -0.8253  -0.8165  -0.8090  -0.8038  -0.8037
    -0.7993  -0.7515  -0.7462  -0.6826  -0.6777  -0.5994  -0.4999  -0.4899
    -0.4570  -0.4521  -0.4497  -0.4378  -0.4153  -0.3672  -0.3131  -0.2921
    -0.2795  -0.2787  -0.2672  -0.2579  -0.1955  -0.1930  -0.1759  -0.1609
    -0.1556  -0.0641  -0.0397  -0.0396   0.0352   0.0381   0.0674   0.1061
     0.1195   0.1237   0.1241   0.1407   0.2152   0.2155   0.2222   0.3533
     0.3613   0.3629   0.3664   0.3775   0.3832   0.3931   0.4047   0.4082
     0.4190   0.5332   0.5656   0.6005   0.6053   0.6064   0.6241   0.6955
     0.7013   0.8386   0.8645   0.9383   0.9390   0.9844   1.1104   1.1743
     1.1864   1.1879   1.1979   1.1984   1.2005   1.2021   1.2060   1.2612
     1.3249   1.3914   1.3984   1.4422   1.5303   1.6567   1.6672   1.8067
     1.9096   1.9133   2.0255   2.0275   2.0322   2.0516   2.1048   2.1368
     2.1669   2.1687   2.1828   2.1877   2.2858   2.2924   2.3358   2.3408
     2.3423   2.3438   2.4116   2.4780   2.4929   2.5010   2.5508   2.5513
     2.5611   2.5652   2.6493   2.6493   2.6958   2.8229   2.8530   2.8532
     2.8538   2.8541   3.0555   3.0710   3.1356   3.1745   3.2426   3.5501
     3.5976   3.6329   3.6614   3.6640   3.6725   3.6791   3.6827   3.6877
     3.7692   3.7697   3.8011   3.8486   3.8936   3.9179   3.9444   3.9493
     3.9747   3.9893   3.9909   4.1774   4.2433   4.3150   4.3159   4.3705
     4.4211   4.4930   4.6707   4.6709   4.6733   4.6799   4.7067   4.7088
     4.7586   4.7663   4.7846   4.7944   4.8399   4.8618   4.8889   4.9085
     5.1048   5.1075   5.1243   5.1326   5.1382   5.1496   5.1562   5.1568
     5.1681   5.1837   5.2244   5.2278   5.2353   5.2403   5.2416   5.2776
     5.2860   5.3908   5.4151   5.4194   5.4249   5.4419   5.4817   5.4876
     5.5396   5.5717

          k =-0.5000-0.2887 0.0000 (163042 PWs)   bands (ev):

   -46.4440 -46.4435 -46.4177 -46.4172 -46.3804 -46.3803 -46.3801 -46.3792
   -46.3692 -46.3687 -46.3540 -46.3531 -46.3531 -46.3530 -46.3425 -46.3419
   -46.0074 -46.0054 -45.9792 -45.9784 -45.9405 -45.9392 -45.9391 -45.9390
   -45.9289 -45.9268 -45.9132 -45.9118 -45.9116 -45.9091 -45.9002 -45.8994
   -45.8191 -45.8168 -45.7778 -45.7665 -45.7643 -45.7297 -45.7249 -45.7228
   -45.7169 -45.7158 -45.7038 -45.7035 -45.6989 -45.6898 -45.6854 -45.6812
   -24.8164 -24.8161 -24.8160 -24.8155 -24.7673 -24.7672 -24.7654 -24.7651
   -24.7306 -24.7302 -24.7245 -24.7241 -24.6794 -24.6794 -24.6792 -24.6790
   -24.6390 -24.6387 -24.6181 -24.6181 -24.6179 -24.6179 -24.6168 -24.6166
   -24.6165 -24.6164 -24.5998 -24.5994 -24.5053 -24.5047 -24.4935 -24.4919
   -24.4914 -24.4896 -24.4379 -24.4364 -24.4009 -24.4004 -24.3714 -24.3708
   -24.3566 -24.3539 -24.3082 -24.3075 -24.3072 -24.3071 -24.3067 -24.3065
   -24.3052 -24.3038 -24.3032 -24.3032 -24.3031 -24.3028 -24.3017 -24.3013
   -24.2628 -24.2555 -24.2367 -24.2362 -24.2362 -24.2358 -24.2358 -24.2333
   -24.2319 -24.2317 -24.2157 -24.2109 -24.2101 -24.2086 -24.2081 -24.2018
   -24.1837 -24.1830 -24.1829 -24.1776 -24.1727 -24.1725 -24.1625 -24.1605
   -24.1604 -24.1596 -24.1366 -24.1364 -24.1361 -24.1347 -24.1228 -24.1152
   -24.1033 -24.1010 -24.0904 -24.0771 -24.0733 -24.0727 -24.0411 -24.0237
   -24.0225 -24.0077 -24.0069 -24.0044 -23.9893 -23.9864 -23.9714 -23.9708
   -23.9632 -23.9624 -23.9555 -23.9506 -23.9496 -23.9488 -23.9483 -23.9474
   -23.9388 -23.9332 -23.8747 -23.8745 -23.8740 -23.8736 -23.8451 -23.8427
   -23.8300 -23.8163 -23.8107 -23.8092 -23.7690 -23.7683 -23.7639 -23.7620
   -23.7481 -23.7425 -23.7031 -23.7008 -23.6833 -23.6785 -23.6645 -23.6636
   -23.6391 -23.6364 -23.6146 -23.6092 -23.5695 -23.5574 -23.4965 -23.4919
   -14.9482  -9.4343  -9.4315  -8.9103  -8.9083  -8.6446  -8.6413  -8.2832
    -8.2819  -7.9788  -7.9783  -7.9773  -7.9764  -7.6663  -7.6662  -7.6632
    -7.6609  -7.5850  -7.5850  -7.4123  -7.4109  -7.3322  -7.3116  -7.0339
    -7.0332  -7.0331  -7.0312  -7.0157  -6.9741  -6.7229  -6.7223  -6.7195
    -6.7185  -6.4197  -6.4069  -6.4012  -6.3557  -6.3509  -6.3111  -6.1151
    -6.0530  -5.8493  -5.8440  -5.5690  -5.5596  -5.5327  -5.5248  -5.5050
    -5.5050  -5.2703  -5.2654  -5.1023  -5.1006  -5.0947  -5.0937  -4.6662
    -4.6543  -4.6497  -4.6473  -4.6114  -4.5382  -4.4872  -4.4870  -4.0698
    -4.0346  -4.0206  -4.0055  -3.6322  -3.6049  -3.6048  -3.6047  -3.6045
    -3.5771  -3.5391  -3.5085  -3.3684  -3.3620  -3.3330  -3.3306  -3.2650
    -3.2623  -3.2621  -3.2617  -2.9961  -2.9264  -2.7421  -2.7365  -2.6690
    -2.6642  -2.2839  -2.2693  -2.2514  -2.2190  -2.1623  -2.1610  -2.1608
    -2.1601  -2.0166  -2.0135  -1.9585  -1.9583  -1.8430  -1.8420  -1.8373
    -1.8365  -1.8166  -1.8115  -1.8052  -1.7951  -1.7253  -1.6934  -1.6906
    -1.6891  -1.6789  -1.6720  -1.5907  -1.5876  -1.5089  -1.5030  -1.4750
    -1.4589  -1.2853  -1.2727  -1.2669  -1.2086  -1.2069  -1.2053  -1.0855
    -0.9663  -0.9323  -0.9282  -0.8975  -0.8805  -0.8515  -0.8390  -0.8365
    -0.8350  -0.8312  -0.8283  -0.8216  -0.8129  -0.8039  -0.8037  -0.7811
    -0.7789  -0.7729  -0.7567  -0.6964  -0.6756  -0.6067  -0.5311  -0.4974
    -0.4597  -0.4545  -0.4526  -0.4375  -0.4217  -0.3456  -0.3140  -0.2934
    -0.2892  -0.2792  -0.2780  -0.2583  -0.1947  -0.1931  -0.1756  -0.1483
    -0.1466  -0.1074  -0.0401  -0.0393   0.0300   0.0350   0.0399   0.1161
     0.1210   0.1222   0.1231   0.1630   0.2098   0.2155   0.2826   0.3378
     0.3615   0.3631   0.3643   0.3793   0.3865   0.3940   0.4039   0.4065
     0.4108   0.4982   0.5255   0.6054   0.6059   0.6087   0.6113   0.7191
     0.7967   0.8470   0.9038   0.9337   0.9420   1.0072   1.0524   1.1720
     1.1836   1.1878   1.1975   1.1977   1.1993   1.1995   1.2078   1.2548
     1.2999   1.3731   1.3899   1.4054   1.5392   1.6639   1.6643   1.8126
     1.9095   1.9099   2.0256   2.0268   2.0394   2.0562   2.1064   2.1670
     2.1680   2.1808   2.1845   2.2335   2.2469   2.3104   2.3143   2.3338
     2.3452   2.3509   2.3814   2.4747   2.4916   2.4938   2.5508   2.5514
     2.5611   2.5626   2.6492   2.6496   2.7550   2.8529   2.8531   2.8533
     2.8534   2.8759   2.9157   3.1165   3.1511   3.1839   3.1879   3.5965
     3.6014   3.6280   3.6628   3.6668   3.6696   3.6820   3.6829   3.7630
     3.7658   3.7751   3.8067   3.8470   3.8712   3.8827   3.9477   3.9490
     3.9800   3.9916   3.9921   4.1067   4.2321   4.2970   4.3150   4.3310
     4.4122   4.5289   4.6703   4.6715   4.6720   4.6736   4.7065   4.7071
     4.7632   4.7722   4.7809   4.7963   4.8203   4.8888   4.8956   5.0229
     5.1142   5.1163   5.1237   5.1300   5.1372   5.1486   5.1491   5.1576
     5.1764   5.1785   5.2194   5.2219   5.2408   5.2418   5.2820   5.2856
     5.2923   5.3101   5.4026   5.4199   5.4240   5.4284   5.4389   5.5357
     5.5542   5.6180

     the Fermi energy is     2.4176 ev

!    total energy              =  -15893.66771167 Ry
     total all-electron energy =   -350412.162648 Ry
     estimated scf accuracy    <       0.00000008 Ry
     smearing contrib. (-TS)   =      -0.05202278 Ry
     internal energy E=F+TS    =  -15893.61568890 Ry

     The total energy is F=E-TS. E is the sum of the following terms:
     one-electron contribution =  -69823.48052614 Ry
     hartree contribution      =   35052.51161361 Ry
     xc contribution           =   -1155.95556220 Ry
     ewald contribution        =   30624.05351018 Ry
     one-center paw contrib.   =  -10590.74472436 Ry

     convergence has been achieved in  21 iterations

     negative rho (up, down):  6.636E-03 0.000E+00

     Forces acting on atoms (cartesian axes, Ry/au):

     atom    1 type  1   force =     0.00010821    0.00023833   -0.00028679
     atom    2 type  2   force =     0.00013216   -0.00004930    0.00003283
     atom    3 type  2   force =     0.00013576    0.00005876    0.00051633
     atom    4 type  1   force =     0.00054017    0.00051443   -0.00008347
     atom    5 type  2   force =    -0.00018712   -0.00040830   -0.00056976
     atom    6 type  2   force =     0.00069577    0.00038657    0.00175786
     atom    7 type  1   force =     0.00461032    0.00217453    0.00029311
     atom    8 type  2   force =     0.00636083    0.00222057    0.00384467
     atom    9 type  2   force =    -0.00055325   -0.00104140   -0.00038741
     atom   10 type  1   force =     0.00029709   -0.00000053   -0.00032825
     atom   11 type  2   force =     0.00003410    0.00014914    0.00006108
     atom   12 type  2   force =     0.00020537   -0.00037937    0.00008817
     atom   13 type  1   force =     0.00073104    0.00022010   -0.00004059
     atom   14 type  2   force =    -0.00031836    0.00008210   -0.00024898
     atom   15 type  2   force =     0.00047983   -0.00030725    0.00024593
     atom   16 type  1   force =     0.00355443    0.00251646    0.00037739
     atom   17 type  2   force =     0.00489803    0.00535296    0.00363332
     atom   18 type  2   force =    -0.00085945    0.00045237    0.00029347
     atom   19 type  1   force =    -0.00025657    0.00002399   -0.00027726
     atom   20 type  2   force =     0.00041994   -0.00008073    0.00071264
     atom   21 type  2   force =    -0.00003228   -0.00002706   -0.00010275
     atom   22 type  1   force =    -0.00071754   -0.00015118   -0.00010626
     atom   23 type  2   force =     0.00134420   -0.00027563    0.00042989
     atom   24 type  2   force =     0.00025690    0.00014443    0.00044096
     atom   25 type  1   force =    -0.00398106   -0.00276754    0.00031795
     atom   26 type  2   force =     0.00032917    0.00079381    0.00042504
     atom   27 type  2   force =     0.00128092    0.00070072    0.00048840
     atom   28 type  1   force =    -0.00013651   -0.00025679   -0.00032845
     atom   29 type  2   force =     0.00012738    0.00040982    0.00066604
     atom   30 type  2   force =    -0.00023036    0.00039095    0.00014960
     atom   31 type  1   force =    -0.00049950   -0.00053155   -0.00008834
     atom   32 type  2   force =     0.00034615    0.00149682    0.00050017
     atom   33 type  2   force =    -0.00011491    0.00074441    0.00035858
     atom   34 type  1   force =    -0.00370350   -0.00171071    0.00036045
     atom   35 type  2   force =     0.00090415   -0.00009177    0.00087996
     atom   36 type  2   force =    -0.00015060   -0.00104414    0.00016779
     atom   37 type  1   force =     0.00006865   -0.00015817   -0.00057179
     atom   38 type  2   force =     0.00006671    0.00010026    0.00025079
     atom   39 type  2   force =     0.00001208    0.00023276   -0.00006297
     atom   40 type  1   force =     0.00000165   -0.00050449   -0.00053940
     atom   41 type  2   force =     0.00037665   -0.00031371    0.00086075
     atom   42 type  2   force =    -0.00021240   -0.00012575    0.00041447
     atom   43 type  1   force =     0.00284710   -0.00374054   -0.00423421
     atom   44 type  2   force =     0.00074246    0.00483683   -0.00321434
     atom   45 type  2   force =    -0.00369830   -0.02504936   -0.01112655
     atom   46 type  1   force =    -0.00044029   -0.00022325   -0.00054064
     atom   47 type  2   force =     0.00008483    0.00003554    0.00018255
     atom   48 type  2   force =     0.00022342   -0.00011932   -0.00012777
     atom   49 type  1   force =     0.00024325    0.00013958    0.00141051
     atom   50 type  2   force =    -0.00052569   -0.00028671    0.00036491
     atom   51 type  2   force =    -0.00008927   -0.00012381    0.00010768
     atom   52 type  1   force =     0.00103595    0.00014916    0.00576901
     atom   53 type  2   force =     0.03953242    0.01440824    0.12795322
     atom   54 type  2   force =    -0.02234475    0.01036605   -0.01055614
     atom   55 type  1   force =    -0.00009943    0.00009703   -0.00054407
     atom   56 type  2   force =     0.00013326   -0.00002211    0.00026467
     atom   57 type  2   force =     0.00017112   -0.00012554   -0.00012622
     atom   58 type  1   force =    -0.00050490    0.00030717   -0.00059080
     atom   59 type  2   force =    -0.00006138    0.00042473    0.00084378
     atom   60 type  2   force =    -0.00017559   -0.00015425   -0.00037559
     atom   61 type  1   force =     0.00019384    0.00260572   -0.00379993
     atom   62 type  2   force =     0.00268322   -0.00434595   -0.00199523
     atom   63 type  2   force =    -0.00300660    0.00142819   -0.00087530
     atom   64 type  1   force =    -0.00008300   -0.00005182   -0.00028225
     atom   65 type  2   force =    -0.00000151    0.00001038    0.00008411
     atom   66 type  2   force =    -0.00001494    0.00025558   -0.00012313
     atom   67 type  1   force =    -0.00003778   -0.00008053   -0.00028247
     atom   68 type  2   force =     0.00003292   -0.00001080    0.00046398
     atom   69 type  2   force =    -0.00010308    0.00000266   -0.00026317
     atom   70 type  1   force =     0.00050768    0.00070922   -0.00081568
     atom   71 type  2   force =    -0.00205240   -0.00116528    0.00061414
     atom   72 type  2   force =    -0.00032007   -0.00343588   -0.00095729
     atom   73 type  1   force =    -0.00010484    0.00010601   -0.00003063
     atom   74 type  2   force =    -0.00018942    0.00014092   -0.00012621
     atom   75 type  2   force =    -0.00013938   -0.00000429    0.00025733
     atom   76 type  1   force =    -0.00059334    0.00098367    0.00042241
     atom   77 type  2   force =     0.00018470    0.00003501   -0.00024788
     atom   78 type  2   force =    -0.00014121   -0.00042305    0.00100942
     atom   79 type  1   force =    -0.00082790    0.00111594    0.00070827
     atom   80 type  2   force =     0.00322060   -0.00153093   -0.00070440
     atom   81 type  2   force =    -0.00473769    0.00193268   -0.00297015
     atom   82 type  1   force =     0.00037685   -0.00061905   -0.00001213
     atom   83 type  2   force =    -0.00021165    0.00010950   -0.00006024
     atom   84 type  2   force =    -0.00006514   -0.00005007    0.00017370
     atom   85 type  1   force =    -0.00000534    0.00000489    0.00109234
     atom   86 type  2   force =     0.00017734    0.00022470    0.00052686
     atom   87 type  2   force =     0.00056550    0.00033097    0.00020198
     atom   88 type  1   force =     0.00609872   -0.01022613   -0.01528533
     atom   89 type  2   force =     0.02264134   -0.00825269   -0.01080164
     atom   90 type  2   force =    -0.03268667   -0.02697341    0.11999646
     atom   91 type  1   force =    -0.00036814    0.00066604   -0.00003486
     atom   92 type  2   force =    -0.00000461   -0.00025400   -0.00011750
     atom   93 type  2   force =    -0.00005479   -0.00014713    0.00027062
     atom   94 type  1   force =     0.00003474   -0.00006813    0.00117002
     atom   95 type  2   force =     0.00022808   -0.00005985    0.00020898
     atom   96 type  2   force =    -0.00040560    0.00005246    0.00099505
     atom   97 type  1   force =    -0.00529327    0.00914694   -0.01200669
     atom   98 type  2   force =     0.00254621    0.02240971   -0.00951297
     atom   99 type  2   force =     0.00215007   -0.00443730   -0.00176883
     atom  100 type  1   force =     0.00004008   -0.00015813   -0.00009400
     atom  101 type  2   force =     0.00003679   -0.00018889   -0.00012488
     atom  102 type  2   force =    -0.00001733    0.00000887    0.00013259
     atom  103 type  1   force =     0.00054239   -0.00098176    0.00054321
     atom  104 type  2   force =     0.00024240    0.00020782   -0.00036182
     atom  105 type  2   force =     0.00003111   -0.00000887    0.00046906
     atom  106 type  1   force =     0.00064319   -0.00152588    0.00154330
     atom  107 type  2   force =     0.00024415    0.00332820   -0.00062428
     atom  108 type  2   force =     0.00202856    0.00119169    0.00046853
     atom  109 type  1   force =     0.00013062    0.00007096   -0.00025854
     atom  110 type  2   force =     0.00003221    0.00001024   -0.00012722
     atom  111 type  2   force =    -0.00042326    0.00010719    0.00066330
     atom  112 type  1   force =     0.00002796   -0.00004348   -0.00027738
     atom  113 type  2   force =    -0.00029218   -0.00018071    0.00030957
     atom  114 type  2   force =    -0.00132467    0.00036174    0.00045243
     atom  115 type  1   force =    -0.00077735   -0.00009388   -0.00075408
     atom  116 type  2   force =    -0.00122181   -0.00072536    0.00070895
     atom  117 type  2   force =    -0.00028990   -0.00071139    0.00061108
     atom  118 type  1   force =     0.00009897   -0.00010776   -0.00055025
     atom  119 type  2   force =    -0.00022007    0.00038238    0.00011659
     atom  120 type  2   force =    -0.00002861   -0.00014827    0.00002617
     atom  121 type  1   force =     0.00044771   -0.00023075   -0.00060047
     atom  122 type  2   force =    -0.00052636    0.00040088    0.00031967
     atom  123 type  2   force =     0.00033872    0.00006957   -0.00050411
     atom  124 type  1   force =     0.00088303   -0.00379709   -0.00367604
     atom  125 type  2   force =     0.00100638   -0.00058545    0.00006035
     atom  126 type  2   force =    -0.00522361   -0.00431125    0.00379453
     atom  127 type  1   force =     0.00038519    0.00025264   -0.00055381
     atom  128 type  2   force =    -0.00012165   -0.00009022    0.00052748
     atom  129 type  2   force =    -0.00015617    0.00004533    0.00005881
     atom  130 type  1   force =    -0.00023182   -0.00012433    0.00139200
     atom  131 type  2   force =    -0.00069027   -0.00041532    0.00167934
     atom  132 type  2   force =     0.00011935    0.00014162   -0.00019175
     atom  133 type  1   force =    -0.00011646   -0.00060199    0.00482895
     atom  134 type  2   force =     0.00098395   -0.00012338   -0.00041759
     atom  135 type  2   force =    -0.00691534   -0.00164263    0.00366777
     atom  136 type  1   force =    -0.00001082    0.00011115   -0.00053461
     atom  137 type  2   force =     0.00022403   -0.00036192    0.00006374
     atom  138 type  2   force =    -0.00013053   -0.00040468    0.00071123
     atom  139 type  1   force =     0.00002070    0.00058418   -0.00063703
     atom  140 type  2   force =    -0.00000611   -0.00049700    0.00023246
     atom  141 type  2   force =    -0.00044256   -0.00113365    0.00039355
     atom  142 type  1   force =    -0.00238764    0.00018563   -0.00324001
     atom  143 type  2   force =    -0.00007530    0.00102410    0.00024644
     atom  144 type  2   force =    -0.00073852    0.00010324    0.00013343
     atom  145 type  3   force =    -0.00977106    0.02037336   -0.19575357

     Total force =     0.278107     Total SCF correction =     0.000711


     Computing stress (Cartesian axis) and pressure


     negative rho (up, down):  6.636E-03 0.000E+00
          total   stress  (Ry/bohr**3)                   (kbar)     P=       -9.62
  -0.00009040  -0.00000876  -0.00000134          -13.30       -1.29       -0.20
  -0.00000876  -0.00008065   0.00000268           -1.29      -11.86        0.39
  -0.00000134   0.00000268  -0.00002505           -0.20        0.39       -3.69


     BFGS Geometry Optimization
     Energy error            =      7.7E-02 Ry
     Gradient error          =      2.0E-01 Ry/Bohr

     number of scf cycles    =   1
     number of bfgs steps    =   0

     energy             new  =  -15893.6677116701 Ry

     new trust radius        =       0.1970533163 bohr
     new conv_thr            =       0.0000001000 Ry


ATOMIC_POSITIONS (angstrom)
Zr               0.0000572646        0.0001261207       10.0951109136
B                1.5903162752        0.9181030486       11.7812257221
B                0.0000718208        1.8362893903       11.7814815797
Zr               0.0002858464        0.0002722251       13.5506718348
B                1.5901476508        0.9179132654       15.3268633385
B                0.0003681644        1.8364632397       15.3280950631
Zr               0.0024396777        0.0011507120       17.1328918923
B                1.5936107406        0.9193032887       18.7772019649
B               -0.0002927897        1.8357053596       18.7749624473
Zr              -1.5900865870        2.7543827835       10.0950907239
B                0.0000180674        3.6725944551       11.7812412506
B               -1.5901367929        4.5904426707       11.7812566110
Zr              -1.5898591548        2.7545033610       13.5506965906
B               -0.0001684478        3.6725589766       15.3270334917
B               -1.5899919183        4.5904812386       15.3272959899
Zr              -1.5883641866        2.7557169934       17.1329375014
B                0.0025919484        3.6753442567       18.7770900650
B               -1.5907008191        4.5908788369       18.7753234908
Zr              -3.1806261432        5.5087836032       10.0951188264
B               -1.5900227006        6.4268568146       11.7815865523
B               -3.1805067554        7.3450128408       11.7811555848
Zr              -3.1808700753        5.5086909107       13.5506632622
B               -1.5895332955        6.4267538518       15.3273932744
B               -3.1803535585        7.3451030761       15.3273991953
Zr              -3.1825970555        5.5073063931       17.1329081282
B               -1.5900714502        6.4273191876       18.7753918589
B               -3.1798155528        7.3453994757       18.7754266448
Zr              -4.7708091686        8.2630228753       10.0950906202
B               -3.1804215552        9.1815009147       11.7815613802
B               -4.7708563292       10.0996195709       11.7812875154
Zr              -4.7709990502        8.2628736565       13.5506713218
B               -3.1803057903        9.1820761314       15.3274299265
B               -4.7707949053       10.0998064282       15.3273545945
Zr              -4.7726954260        8.2622512203       17.1329285382
B               -3.1800139215        9.1812374567       18.7756330494
B               -4.7708157290       10.0988610807       18.7752562459
Zr               3.1805239317       -0.0000837014       10.0949618501
B                4.7707718614        0.9181817918       11.7813426681
B                3.1804981345        1.8363809559       11.7811756060
Zr               3.1804928915       -0.0002669666       13.5504326333
B                4.7709364011        0.9179626204       15.3276213374
B                3.1803793382        1.8361912368       15.3273845724
Zr               3.1819968537       -0.0019794108       17.1304971498
B                4.7711262901        0.9206858158       18.7734672371
B                3.1785312696        1.8230002608       18.7692794753
Zr               1.5900108144        2.7542649271       10.0949783338
B                3.1805359992        3.6725334664       11.7813065572
B                1.5903636716        4.5905802864       11.7811423421
Zr               1.5903747372        2.7544607491       13.5514644787
B                3.1802130918        3.6723634528       15.3273589493
B                1.5901985621        4.5905783092       15.3272228300
Zr               1.5907933218        2.7544642750       17.1357906225
B                3.2014070535        3.6801376596       18.8428781223
B                1.5784216595        4.5961249353       18.7695821228
Zr              -0.0000526136        5.5088226790       10.0949778392
B                1.5903154714        6.4268878346       11.7813494969
B                0.0000905337        7.3449614578       11.7811435519
Zr              -0.0002671835        5.5089337560       13.5504068483
B                1.5902121666        6.4271244655       15.3276122981
B               -0.0000929386        7.3449462648       15.3269676921
Zr               0.0001025738        5.5101461504       17.1307290980
B                1.5916655663        6.4245993422       18.7741111077
B               -0.0015910431        7.3457836548       18.7747054167
Zr              -1.5902887325        8.2631287365       10.0951163872
B               -0.0000007782        9.1812900570       11.7812539491
B               -1.5902521148       10.0995483363       11.7811447958
Zr              -1.5902649176        8.2631136090       13.5505700087
B                0.0000174385        9.1812784954       15.3274113133
B               -1.5902982304       10.0994146116       15.3270265823
Zr              -1.5899796872        8.2635334943       17.1323082965
B               -0.0010860632        9.1806687481       18.7754919271
B               -1.5904167480       10.0975973607       18.7746616171
Zr               6.3609252627        0.0000560980       10.0952493413
B                7.9511247148        0.9182033129       11.7811431673
B                6.3609069634        1.8362549944       11.7813456089
Zr               6.3606667565        0.0005205341       13.5509430186
B                7.9513221642        0.9181471523       15.3270346768
B                6.3609059938        1.8360337513       15.3276999476
Zr               6.3605426322        0.0005905325       17.1331146731
B                7.9529323808        0.9173161449       18.7747954389
B                6.3584736407        1.8372791707       18.7735952016
Zr               4.7709353362        2.7540580852       10.0952593266
B                6.3608687599        3.6725718749       11.7811784674
B                4.7707013189        4.5906158014       11.7813013560
Zr               4.7707329801        2.7543881978       13.5512975245
B                6.3610746019        3.6726328363       15.3274452483
B                4.7710353419        4.5908172634       15.3272726690
Zr               4.7739596938        2.7489721996       17.1246512845
B                6.3729620426        3.6681467969       18.7694526209
B                4.7534380315        4.5763689950       18.8386663301
Zr               3.1802955573        5.5091233651       10.0952471014
B                4.7707328587        6.4267639929       11.7811477796
B                3.1804606349        7.3449493049       11.7813531607
Zr               3.1805087552        5.5087348589       13.5513386392
B                4.7708556358        6.4268663293       15.3272764352
B                3.1802748322        7.3450544105       15.3276924036
Zr               3.1776892940        5.5136112618       17.1263862101
B                4.7720821466        6.4387610841       18.7701341475
B                3.1816311103        7.3426805522       18.7742321705
Zr               1.5902660341        8.2630724771       10.0952160025
B                3.1805084704        9.1811840900       11.7811428467
B                1.5902350091       10.0994177824       11.7812801173
Zr               1.5905319530        8.2626366970       13.5510069391
B                3.1806172758        9.1813940228       15.3269737785
B                1.5902601162       10.0994085086       15.3274140636
Zr               1.5905887090        8.2623507330       17.1335566114
B                3.1806216155        9.1830472260       18.7748370418
B                1.5913208108       10.1000461665       18.7754161293
Zr               9.5415429926        0.0000375478       10.0951276126
B               11.1317322142        0.9181345583       11.7811410309
B                9.5412457234        1.8363145062       11.7815599295
Zr               9.5414842597       -0.0000230072       13.5505712869
B               11.1315602236        0.9180337001       15.3273286636
B                9.5407687204        1.8364492048       15.3274046635
Zr               9.5410598898       -0.0000496817       17.1323387527
B               11.1310702176        0.9177443701       18.7755426156
B                9.5413197075        1.8358793574       18.7754907663
Zr               7.9512779352        2.7543286487       10.0949745647
B                9.5413539532        3.6727170028       11.7812716548
B                7.9512105227        4.5905638366       11.7812232841
Zr               7.9514625920        2.7542635022       13.5504017289
B                9.5411917058        3.6727273064       15.3273350111
B                7.9514045998        4.5906789353       15.3268990262
Zr               7.9516963679        2.7523743046       17.1307946586
B                9.5420066781        3.6722033405       18.7752001313
B                7.9484621617        4.5883612927       18.7771749183
Zr               6.3611845741        5.5089041784       10.0949726846
B                7.9511618355        6.4268506616       11.7814890842
B                6.3608980761        7.3450502747       11.7812400485
Zr               6.3608580638        5.5087048188       13.5514560995
B                7.9508612970        6.4266782253       15.3280545134
B                6.3610438775        7.3451012351       15.3270637740
Zr               6.3609191095        5.5084559978       17.1352953026
B                7.9517474454        6.4268370856       18.7749472139
B                6.3573212817        7.3441609867       18.7771082936
Zr               4.7707312183        8.2632175840       10.0949815239
B                6.3610993109        9.1810920158       11.7812420776
B                4.7706653281       10.0991985457       11.7815847160
Zr               4.7707456905        8.2634640776       13.5503809673
B                6.3609775291        9.1810201540       15.3272878561
B                4.7704998792       10.0988125974       15.3273731041
Zr               4.7694721435        8.2632547195       17.1310232549
B                6.3609409154        9.1818273135       18.7752978677
B                4.7703451946       10.0994682515       18.7752380640
O                3.9948293792        4.0107811179       20.1715802741



     Writing config-only to output data dir ./tmp/pwscf.save/ :
     XML data file
     NEW-OLD atomic charge density approx. for the potential

     negative rho (up, down):  6.614E-03 0.000E+00

     total cpu time spent up to now is     1437.0 secs

     per-process dynamical memory:   499.7 Mb

     Self-consistent Calculation

     iteration #  1     ecut=    50.00 Ry     beta= 0.70
     Davidson diagonalization with overlap
     ethr =  1.00E-06,  avg # of iterations =  8.8

     negative rho (up, down):  6.057E-03 0.000E+00

     total cpu time spent up to now is     1552.8 secs

     total energy              =  -15893.72690599 Ry
     estimated scf accuracy    <       0.04125157 Ry

     iteration #  2     ecut=    50.00 Ry     beta= 0.70
     Davidson diagonalization with overlap
     ethr =  4.74E-06,  avg # of iterations =  5.0

     negative rho (up, down):  5.775E-03 0.000E+00

     total cpu time spent up to now is     1615.8 secs

     total energy              =  -15893.73321483 Ry
     estimated scf accuracy    <       0.04098695 Ry

     iteration #  3     ecut=    50.00 Ry     beta= 0.70
     Davidson diagonalization with overlap
     ethr =  4.71E-06,  avg # of iterations =  4.0

     negative rho (up, down):  5.215E-03 0.000E+00

     total cpu time spent up to now is     1674.7 secs

     total energy              =  -15893.73647398 Ry
     estimated scf accuracy    <       0.00088441 Ry

     iteration #  4     ecut=    50.00 Ry     beta= 0.70
     Davidson diagonalization with overlap
     ethr =  1.02E-07,  avg # of iterations =  4.5

     negative rho (up, down):  4.973E-03 0.000E+00

     total cpu time spent up to now is     1737.0 secs

     total energy              =  -15893.73657735 Ry
     estimated scf accuracy    <       0.00013457 Ry

     iteration #  5     ecut=    50.00 Ry     beta= 0.70
     Davidson diagonalization with overlap
     ethr =  1.55E-08,  avg # of iterations =  3.5

     negative rho (up, down):  4.862E-03 0.000E+00

     total cpu time spent up to now is     1796.0 secs

     total energy              =  -15893.73658266 Ry
     estimated scf accuracy    <       0.00007591 Ry

     iteration #  6     ecut=    50.00 Ry     beta= 0.70
     Davidson diagonalization with overlap
     ethr =  8.73E-09,  avg # of iterations =  2.0

     negative rho (up, down):  4.792E-03 0.000E+00

     total cpu time spent up to now is     1852.1 secs

     total energy              =  -15893.73658166 Ry
     estimated scf accuracy    <       0.00003875 Ry

     iteration #  7     ecut=    50.00 Ry     beta= 0.70
     Davidson diagonalization with overlap
     ethr =  4.45E-09,  avg # of iterations =  4.2

     negative rho (up, down):  4.984E-03 0.000E+00

     total cpu time spent up to now is     1910.8 secs

     total energy              =  -15893.73658392 Ry
     estimated scf accuracy    <       0.00000650 Ry

     iteration #  8     ecut=    50.00 Ry     beta= 0.70
     Davidson diagonalization with overlap
     ethr =  7.48E-10,  avg # of iterations =  4.0

     negative rho (up, down):  5.378E-03 0.000E+00

     total cpu time spent up to now is     1969.9 secs

     total energy              =  -15893.73658327 Ry
     estimated scf accuracy    <       0.00000300 Ry

     iteration #  9     ecut=    50.00 Ry     beta= 0.70
     Davidson diagonalization with overlap
     ethr =  3.45E-10,  avg # of iterations =  2.8

     negative rho (up, down):  5.957E-03 0.000E+00

     total cpu time spent up to now is     2028.9 secs

     total energy              =  -15893.73658194 Ry
     estimated scf accuracy    <       0.00000158 Ry

     iteration # 10     ecut=    50.00 Ry     beta= 0.70
     Davidson diagonalization with overlap
     ethr =  1.82E-10,  avg # of iterations =  2.0

     negative rho (up, down):  6.381E-03 0.000E+00

     total cpu time spent up to now is     2088.9 secs

     total energy              =  -15893.73658104 Ry
     estimated scf accuracy    <       0.00000083 Ry

     iteration # 11     ecut=    50.00 Ry     beta= 0.70
     Davidson diagonalization with overlap
     ethr =  9.50E-11,  avg # of iterations =  2.0

     negative rho (up, down):  6.558E-03 0.000E+00

     total cpu time spent up to now is     2146.2 secs

     total energy              =  -15893.73658072 Ry
     estimated scf accuracy    <       0.00000022 Ry

     iteration # 12     ecut=    50.00 Ry     beta= 0.70
     Davidson diagonalization with overlap
     ethr =  2.54E-11,  avg # of iterations =  4.0

     negative rho (up, down):  6.648E-03 0.000E+00

     total cpu time spent up to now is     2204.2 secs

     End of self-consistent calculation

          k = 0.0000 0.0000 0.0000 (162831 PWs)   bands (ev):

   -46.4457 -46.3944 -46.3934 -46.3933 -46.3927 -46.3923 -46.3921 -46.3419
   -46.3413 -46.3402 -46.3396 -46.3394 -46.3392 -46.3390 -46.3388 -46.3387
   -46.0080 -45.9545 -45.9537 -45.9530 -45.9525 -45.9520 -45.9511 -45.8993
   -45.8985 -45.8980 -45.8974 -45.8970 -45.8964 -45.8962 -45.8948 -45.8944
   -45.8212 -45.8031 -45.7645 -45.7395 -45.7380 -45.7354 -45.7300 -45.7033
   -45.7002 -45.6887 -45.6802 -45.6782 -45.6763 -45.6754 -45.6720 -45.6712
   -24.8660 -24.8659 -24.8658 -24.7758 -24.7143 -24.7141 -24.7141 -24.7140
   -24.7139 -24.7138 -24.6957 -24.6948 -24.6948 -24.6940 -24.6934 -24.6934
   -24.6047 -24.6041 -24.6034 -24.6016 -24.6012 -24.6008 -24.6004 -24.6001
   -24.6000 -24.5455 -24.5454 -24.5450 -24.4579 -24.4576 -24.4573 -24.4571
   -24.4565 -24.4564 -24.3919 -24.3915 -24.3910 -24.3908 -24.3905 -24.3902
   -24.3814 -24.3810 -24.3809 -24.3808 -24.3807 -24.3802 -24.3696 -24.3635
   -24.3568 -24.3563 -24.2739 -24.2703 -24.2699 -24.2693 -24.2684 -24.2675
   -24.2225 -24.2223 -24.2218 -24.2032 -24.1988 -24.1987 -24.1831 -24.1829
   -24.1779 -24.1721 -24.1712 -24.1684 -24.1676 -24.1669 -24.1663 -24.1656
   -24.1648 -24.1629 -24.1431 -24.1280 -24.1276 -24.1276 -24.1274 -24.1274
   -24.1272 -24.1188 -24.1179 -24.1174 -24.1173 -24.1168 -24.1164 -24.0807
   -24.0588 -24.0411 -24.0402 -24.0394 -24.0393 -24.0389 -24.0387 -24.0384
   -24.0380 -24.0372 -24.0359 -24.0308 -24.0307 -23.9670 -23.9646 -23.9471
   -23.9423 -23.9418 -23.9411 -23.9392 -23.9386 -23.9324 -23.9259 -23.9240
   -23.9210 -23.9198 -23.9122 -23.9047 -23.8584 -23.8580 -23.8579 -23.8559
   -23.8459 -23.8431 -23.8341 -23.8297 -23.8281 -23.7596 -23.7591 -23.7590
   -23.7588 -23.7586 -23.7582 -23.6611 -23.6575 -23.6572 -23.6531 -23.6516
   -23.5637 -23.5607 -23.5570 -23.5496 -23.5477 -23.5404 -23.4507 -23.4474
   -16.0711  -9.6978  -8.8256  -8.6538  -8.6521  -8.6515  -8.6508  -8.6503
    -8.6498  -8.1108  -8.1069  -8.1056  -8.1056  -8.1052  -8.1032  -7.4533
    -7.0448  -7.0446  -7.0446  -7.0444  -7.0442  -7.0442  -7.0115  -7.0111
    -7.0097  -6.8955  -6.8724  -6.8445  -6.8436  -6.8426  -6.8405  -6.8397
    -6.8395  -6.8127  -6.8073  -6.7885  -6.6855  -6.3664  -6.3650  -6.3612
    -5.9660  -5.9656  -5.9654  -5.5811  -5.5062  -5.4960  -5.4800  -5.4783
    -5.4429  -5.1382  -5.1375  -5.1372  -5.0417  -5.0126  -5.0095  -4.6087
    -4.6086  -4.6084  -4.6083  -4.6082  -4.6080  -4.2486  -4.2460  -4.2454
    -4.2445  -4.2435  -4.2431  -3.8211  -3.8056  -3.7962  -3.6973  -3.2104
    -3.1839  -3.0542  -3.0352  -3.0049  -2.9890  -2.9190  -2.9181  -2.9180
    -2.9177  -2.9176  -2.9173  -2.7499  -2.7494  -2.7475  -2.7475  -2.7474
    -2.7472  -2.4722  -2.4720  -2.4718  -2.4716  -2.4714  -2.4710  -2.4590
    -2.4571  -2.4455  -2.4439  -2.4425  -2.4407  -2.2627  -2.2359  -2.2263
    -2.1996  -2.1994  -2.1979  -2.1931  -1.8009  -1.7491  -1.7337  -1.7226
    -1.7042  -1.6483  -1.3171  -1.3161  -1.3153  -1.3116  -1.3061  -1.2607
    -1.2131  -1.2115  -1.2080  -1.2055  -1.0879  -1.0262  -1.0205  -1.0152
    -1.0060  -0.9795  -0.9764  -0.9615  -0.9240  -0.9167  -0.8936  -0.8086
    -0.7993  -0.7981  -0.7976  -0.7975  -0.7974  -0.7970  -0.7967  -0.7965
    -0.7192  -0.6399  -0.6387  -0.6384  -0.6383  -0.6382  -0.6358  -0.6161
    -0.5013  -0.4524  -0.3032  -0.3018  -0.3016  -0.3014  -0.3006  -0.2993
    -0.2880  -0.2875  -0.2871  -0.2846  -0.1961  -0.0896  -0.0273  -0.0248
     0.0589   0.1038   0.1047   0.1135   0.1239   0.1280   0.1280   0.1332
     0.1356   0.1357   0.1566   0.1610   0.1614   0.1619   0.1620   0.1634
     0.1678   0.1686   0.2204   0.2784   0.3060   0.3728   0.5719   0.7717
     0.8187   0.8219   0.8828   0.8859   0.8882   0.8903   0.8916   0.8937
     0.8941   0.9124   0.9222   0.9233   0.9239   0.9249   0.9254   0.9271
     0.9324   0.9384   1.0986   1.0988   1.0990   1.0990   1.0991   1.0999
     1.1905   1.3075   1.6011   1.7421   1.7826   1.7944   1.8758   1.8759
     1.8761   1.8769   1.8769   1.8785   1.9358   1.9774   1.9957   2.0449
     2.1208   2.1589   2.2010   2.2017   2.2019   2.2021   2.2036   2.2059
     2.3412   2.4261   2.4294   2.4524   2.4539   2.4558   2.4678   2.5101
     2.5140   2.5179   2.5228   2.5245   2.5435   2.8120   3.0540   3.2174
     3.2174   3.2175   3.2656   3.2661   3.3094   3.5286   3.5481   3.5564
     3.5732   3.7395   3.7688   3.7975   3.7976   3.7979   3.7984   3.7986
     3.7991   3.7992   3.7996   3.8002   3.8005   3.8609   3.8678   3.9278
     4.1081   4.2234   4.2270   4.2666   4.2672   4.2687   4.4950   4.6920
     4.6929   4.6931   4.6933   4.6942   4.6945   4.7041   4.7107   4.7129
     4.7348   4.7372   4.7549   4.8349   4.8373   4.8392   4.8406   4.8572
     4.8647   4.8759   4.8783   4.8796   4.8807   4.9130   4.9315   4.9319
     4.9320   4.9322   4.9324   4.9328   5.0869   5.1849   5.1881   5.2097
     5.2121   5.2124   5.2148   5.2159   5.2211   5.2238   5.2298   5.2323
     5.3221   5.4700

          k = 0.0000-0.5774 0.0000 (163042 PWs)   bands (ev):

   -46.4309 -46.4297 -46.4041 -46.4038 -46.3670 -46.3666 -46.3664 -46.3661
   -46.3560 -46.3549 -46.3410 -46.3403 -46.3391 -46.3390 -46.3289 -46.3285
   -45.9922 -45.9917 -45.9644 -45.9641 -45.9255 -45.9253 -45.9250 -45.9243
   -45.9136 -45.9129 -45.8978 -45.8969 -45.8967 -45.8962 -45.8853 -45.8849
   -45.8165 -45.8068 -45.7692 -45.7538 -45.7333 -45.7284 -45.7080 -45.7066
   -45.7002 -45.6950 -45.6860 -45.6857 -45.6788 -45.6768 -45.6687 -45.6635
   -24.8031 -24.8027 -24.8018 -24.8016 -24.7540 -24.7535 -24.7522 -24.7510
   -24.7169 -24.7167 -24.7108 -24.7105 -24.6661 -24.6659 -24.6654 -24.6652
   -24.6259 -24.6247 -24.6049 -24.6047 -24.6043 -24.6042 -24.6039 -24.6034
   -24.6023 -24.6022 -24.5862 -24.5859 -24.4915 -24.4911 -24.4775 -24.4769
   -24.4769 -24.4767 -24.4230 -24.4226 -24.3864 -24.3861 -24.3576 -24.3571
   -24.3413 -24.3401 -24.3085 -24.2992 -24.2941 -24.2936 -24.2930 -24.2929
   -24.2915 -24.2898 -24.2886 -24.2883 -24.2881 -24.2880 -24.2790 -24.2763
   -24.2404 -24.2273 -24.2228 -24.2226 -24.2225 -24.2222 -24.2207 -24.2197
   -24.2177 -24.2174 -24.1981 -24.1973 -24.1970 -24.1952 -24.1941 -24.1854
   -24.1686 -24.1681 -24.1671 -24.1661 -24.1595 -24.1587 -24.1481 -24.1463
   -24.1458 -24.1447 -24.1232 -24.1229 -24.1226 -24.1143 -24.1059 -24.1004
   -24.0894 -24.0863 -24.0790 -24.0610 -24.0599 -24.0587 -24.0159 -24.0112
   -24.0080 -24.0077 -23.9868 -23.9851 -23.9732 -23.9725 -23.9567 -23.9459
   -23.9457 -23.9450 -23.9411 -23.9396 -23.9351 -23.9346 -23.9343 -23.9338
   -23.9262 -23.9128 -23.8600 -23.8598 -23.8596 -23.8594 -23.8295 -23.8291
   -23.8220 -23.8057 -23.7959 -23.7953 -23.7544 -23.7541 -23.7435 -23.7398
   -23.7261 -23.7240 -23.6876 -23.6870 -23.6694 -23.6636 -23.6527 -23.6494
[...]
     atom   62 type  2   force =    -0.00019676   -0.00004175   -0.00002190
     atom   63 type  2   force =     0.00014317    0.00006859   -0.00016515
     atom   64 type  1   force =     0.00002522   -0.00001393   -0.00009587
     atom   65 type  2   force =     0.00001566   -0.00001469   -0.00003219
     atom   66 type  2   force =     0.00000491    0.00002241   -0.00004031
     atom   67 type  1   force =     0.00003699   -0.00000866   -0.00003012
     atom   68 type  2   force =     0.00008083    0.00004614   -0.00000144
     atom   69 type  2   force =     0.00006860    0.00007963   -0.00001092
     atom   70 type  1   force =     0.00020157    0.00018844   -0.00003653
     atom   71 type  2   force =     0.00014173    0.00003274   -0.00005703
     atom   72 type  2   force =     0.00008570    0.00012500   -0.00004088
     atom   73 type  1   force =    -0.00002148   -0.00000638   -0.00004120
     atom   74 type  2   force =    -0.00003644   -0.00001762   -0.00004329
     atom   75 type  2   force =    -0.00000182   -0.00001002    0.00003482
     atom   76 type  1   force =    -0.00004446    0.00008349    0.00000128
     atom   77 type  2   force =    -0.00009658   -0.00003482   -0.00002039
     atom   78 type  2   force =    -0.00007776    0.00011870    0.00005823
     atom   79 type  1   force =    -0.00008263    0.00010684   -0.00013204
     atom   80 type  2   force =    -0.00009628   -0.00005764   -0.00010068
     atom   81 type  2   force =     0.00015644    0.00002868    0.00010213
     atom   82 type  1   force =    -0.00003298    0.00003504    0.00004617
     atom   83 type  2   force =    -0.00000788   -0.00004040    0.00002613
     atom   84 type  2   force =    -0.00000874   -0.00003451    0.00008242
     atom   85 type  1   force =    -0.00000717    0.00002719    0.00002844
     atom   86 type  2   force =    -0.00008287    0.00007616    0.00010283
     atom   87 type  2   force =    -0.00000118    0.00001425   -0.00000446
     atom   88 type  1   force =     0.00007719   -0.00005469   -0.00005495
     atom   89 type  2   force =    -0.00007004    0.00035844    0.00070408
     atom   90 type  2   force =    -0.00030500   -0.00001632    0.00083565
     atom   91 type  1   force =     0.00004575   -0.00010166    0.00005075
     atom   92 type  2   force =    -0.00001166   -0.00002010    0.00002100
     atom   93 type  2   force =     0.00000747   -0.00002399    0.00002374
     atom   94 type  1   force =     0.00003910   -0.00004846    0.00003245
     atom   95 type  2   force =     0.00005851   -0.00006948    0.00007916
     atom   96 type  2   force =     0.00006779   -0.00003644   -0.00004092
     atom   97 type  1   force =    -0.00005877    0.00014149   -0.00020386
     atom   98 type  2   force =     0.00019960   -0.00010598    0.00056199
     atom   99 type  2   force =     0.00004896    0.00018363    0.00001310
     atom  100 type  1   force =     0.00000296   -0.00004925   -0.00004398
     atom  101 type  2   force =    -0.00001518   -0.00005473   -0.00005064
     atom  102 type  2   force =    -0.00001900   -0.00003461   -0.00003682
     atom  103 type  1   force =     0.00005134   -0.00008664   -0.00003303
     atom  104 type  2   force =    -0.00008702   -0.00006012   -0.00004742
     atom  105 type  2   force =    -0.00009081   -0.00005044   -0.00000440
     atom  106 type  1   force =    -0.00002733    0.00002301   -0.00035422
     atom  107 type  2   force =    -0.00013332   -0.00002809   -0.00022508
     atom  108 type  2   force =    -0.00008346   -0.00010206   -0.00005962
     atom  109 type  1   force =    -0.00002505   -0.00004303   -0.00008696
     atom  110 type  2   force =    -0.00002548   -0.00004576   -0.00003919
     atom  111 type  2   force =    -0.00002733   -0.00002939   -0.00008113
     atom  112 type  1   force =    -0.00003418   -0.00004808   -0.00003322
     atom  113 type  2   force =     0.00012234    0.00006822   -0.00000724
     atom  114 type  2   force =     0.00010174   -0.00006807   -0.00008148
     atom  115 type  1   force =    -0.00022134   -0.00005352   -0.00008236
     atom  116 type  2   force =    -0.00001798    0.00003690    0.00001880
     atom  117 type  2   force =     0.00017177   -0.00025641   -0.00000295
     atom  118 type  1   force =    -0.00005752   -0.00001197   -0.00002059
     atom  119 type  2   force =     0.00001083   -0.00004230   -0.00003258
     atom  120 type  2   force =     0.00003189   -0.00002882   -0.00002421
     atom  121 type  1   force =     0.00004491   -0.00000947    0.00003169
     atom  122 type  2   force =     0.00008684    0.00000348    0.00002814
     atom  123 type  2   force =     0.00001852    0.00000111    0.00008764
     atom  124 type  1   force =    -0.00044154    0.00017983    0.00019303
     atom  125 type  2   force =     0.00019206   -0.00015431   -0.00013150
     atom  126 type  2   force =     0.00028013   -0.00010829   -0.00008001
     atom  127 type  1   force =    -0.00005982   -0.00007957   -0.00002529
     atom  128 type  2   force =     0.00003478   -0.00001369   -0.00002432
     atom  129 type  2   force =     0.00002376   -0.00000180   -0.00003205
     atom  130 type  1   force =    -0.00002527   -0.00003106    0.00001445
     atom  131 type  2   force =    -0.00005166   -0.00002728    0.00007795
     atom  132 type  2   force =     0.00002120    0.00002547    0.00004754
     atom  133 type  1   force =     0.00043953    0.00019992   -0.00044858
     atom  134 type  2   force =    -0.00009521   -0.00002899   -0.00015581
     atom  135 type  2   force =     0.00004381    0.00037921   -0.00006261
     atom  136 type  1   force =    -0.00000425   -0.00008426   -0.00001114
     atom  137 type  2   force =     0.00000191   -0.00001254   -0.00003066
     atom  138 type  2   force =    -0.00001371   -0.00004523   -0.00007975
     atom  139 type  1   force =     0.00003497    0.00002354    0.00001127
     atom  140 type  2   force =     0.00008682    0.00006534    0.00002385
     atom  141 type  2   force =     0.00001643    0.00012652   -0.00009572
     atom  142 type  1   force =    -0.00014842   -0.00040745    0.00012357
     atom  143 type  2   force =    -0.00005207    0.00017185   -0.00019165
     atom  144 type  2   force =    -0.00005885    0.00031597   -0.00011767
     atom  145 type  3   force =     0.00076120    0.00030420    0.00032455

     Total force =     0.002756     Total SCF correction =     0.000099


     Computing stress (Cartesian axis) and pressure


     negative rho (up, down):  6.866E-03 0.000E+00
          total   stress  (Ry/bohr**3)                   (kbar)     P=       -7.66
  -0.00007830  -0.00000431  -0.00000008          -11.52       -0.63       -0.01
  -0.00000431  -0.00007331   0.00000067           -0.63      -10.78        0.10
  -0.00000008   0.00000067  -0.00000457           -0.01        0.10       -0.67

     Energy error            =      1.6E-05 Ry
     Gradient error          =      8.4E-04 Ry/Bohr

     bfgs converged in  16 scf cycles and  15 bfgs steps
     (criteria: energy <  1.0E-04 Ry, force <  1.0E-03 Ry/Bohr)

     End of BFGS Geometry Optimization

     Final energy             =  -15893.7945123130 Ry

     File ./tmp/pwscf.bfgs deleted, as requested
Begin final coordinates

ATOMIC_POSITIONS (angstrom)
Zr               0.0011799158        0.0007170563       10.0949189868
B                1.5915559056        0.9188711064       11.7822622831
B                0.0019070719        1.8369554462       11.7833452503
Zr               0.0031974050        0.0037182089       13.5506257473
B                1.5919973796        0.9248032679       15.3308661688
B                0.0120685466        1.8421460885       15.3413696466
Zr               0.0111029044       -0.0018943699       17.1411975226
B                1.6185407036        0.8738280310       18.7933594923
B               -0.0160937717        1.8255396937       18.7653137491
Zr              -1.5886725491        2.7545950103       10.0949222896
B                0.0016938885        3.6727071936       11.7823339486
B               -1.5901439916        4.5899576577       11.7819955128
Zr              -1.5847434752        2.7542933300       13.5506083059
B                0.0076947805        3.6692120288       15.3310707419
B               -1.5903312086        4.5883338877       15.3234170155
Zr              -1.5849181236        2.7630512557       17.1408136775
B               -0.0227986759        3.7164876308       18.7938567924
B               -1.5836031790        4.6019021396       18.7755718651
Zr              -3.1819618123        5.5080011428       10.0949342249
B               -1.5905859368        6.4260595761       11.7825152922
B               -3.1820807568        7.3436967045       11.7806799471
Zr              -3.1857846929        5.5076486108       13.5506741330
B               -1.5952574407        6.4259091853       15.3207171923
B               -3.1887541493        7.3391878289       15.3259508431
Zr              -3.1852030574        5.4976326897       17.1415162136
B               -1.5919095836        6.4266582505       18.7693050280
B               -3.1838242447        7.3416780963       18.7725351737
Zr              -4.7719231563        8.2617228717       10.0949363695
B               -3.1810358411        9.1807008845       11.7824568755
B               -4.7710052557       10.0991835326       11.7819615209
Zr              -4.7738274679        8.2580354424       13.5506585257
B               -3.1830532159        9.1757105175       15.3204846970
B               -4.7721274098       10.0989038047       15.3232697808
Zr              -4.7817886871        8.2624686376       17.1411333689
B               -3.1806687460        9.1777352441       18.7683274516
B               -4.7562292595       10.0973493706       18.7752404995
Zr               3.1792899154       -0.0002498659       10.0955823459
B                4.7708297115        0.9181568454       11.7817226874
B                3.1809124000        1.8366840451       11.7818951456
Zr               3.1802350332       -0.0004446336       13.5507230467
B                4.7712313162        0.9178296909       15.3290130064
B                3.1775672389        1.8385322258       15.3316389102
Zr               3.1904501293       -0.0251874545       17.0844679972
B                4.7499479444        0.9042157786       18.7541194668
B                3.1809475234        1.7370188316       18.7609591273
Zr               1.5901087254        2.7540054112       10.0961390717
B                3.1808679425        3.6722998474       11.7825932143
B                1.5912478731        4.5901501718       11.7819978646
Zr               1.5922122749        2.7548159819       13.5524226266
B                3.1783337961        3.6701477785       15.3402427058
B                1.5918699271        4.5854050431       15.3320190880
Zr               1.6145129631        2.7669445316       17.2289690014
B                3.1515821819        3.6533721153       18.9426625980
B                1.5059757491        4.6376225795       18.7619184127
Zr              -0.0004111023        5.5073445479       10.0956253392
B                1.5907478841        6.4262433967       11.7819056923
B                0.0000341727        7.3445038876       11.7802088456
Zr               0.0002502559        5.5077331328       13.5509866287
B                1.5914194998        6.4257235247       15.3298796413
B               -0.0015347776        7.3492395438       15.3195749324
Zr              -0.0155194717        5.5277538897       17.0851821384
B                1.5693725646        6.4129221814       18.7556164055
B               -0.0197746960        7.3455852447       18.7660968768
Zr              -1.5915611362        8.2619590179       10.0960801587
B                0.0003236953        9.1809367041       11.7812852885
B               -1.5902877332       10.0989460504       11.7800961638
Zr              -1.5919159079        8.2613880210       13.5489567667
B                0.0022289287        9.1812765345       15.3257163077
B               -1.5864424355       10.0941097809       15.3190853892
Zr              -1.6033475283        8.2541802757       17.1142876359
B               -0.0236689038        9.1667022849       18.7645105721
B               -1.5979476789       10.0800310032       18.7649497383
Zr               6.3613994730       -0.0008127901       10.0952826454
B                7.9514507925        0.9178604476       11.7801547730
B                6.3607067185        1.8360936951       11.7817675722
Zr               6.3615446665       -0.0014111028       13.5480576847
B                7.9533459471        0.9118915611       15.3192129779
B                6.3603593168        1.8352864780       15.3290834304
Zr               6.3590666882        0.0025460194       17.1558268521
B                7.9709213651        0.9147434502       18.7652791215
B                6.3826147279        1.8469484962       18.7541995226
Zr               4.7705055917        2.7545998579       10.0953876253
B                6.3601494075        3.6722474420       11.7819778946
B                4.7704882202        4.5900651848       11.7826327979
Zr               4.7698561677        2.7553964630       13.5555556033
B                6.3598346414        3.6758065957       15.3317435089
B                4.7731610353        4.5909144165       15.3403263217
Zr               4.7789232809        2.7391816968       17.1318163805
B                6.4457766852        3.6219380459       18.7609498260
B                4.8011682583        4.6055765434       18.9420981070
Zr               3.1808607310        5.5079454257       10.0954478264
B                4.7704388137        6.4256196449       11.7820832028
B                3.1806235320        7.3441342700       11.7819518993
Zr               3.1815605504        5.5063959395       13.5557715201
B                4.7738089303        6.4224902074       15.3321447606
B                3.1802577325        7.3430537168       15.3299532898
Zr               3.1728813409        5.5209915833       17.1328861568
B                4.7712192172        6.5228517520       18.7619261919
B                3.2022847807        7.3555822590       18.7556868369
Zr               1.5901574918        8.2632186645       10.0953532158
B                3.1807673458        9.1808533267       11.7802699003
B                1.5902248084       10.0988648555       11.7813241159
Zr               1.5900503475        8.2630602713       13.5483074532
B                3.1770754287        9.1843531643       15.3197083677
B                1.5886498484       10.0971888624       15.3257754420
Zr               1.5928139803        8.2579113326       17.1578887510
B                3.1890833065        9.1980602886       18.7664255295
B                1.6138249894       10.1121203515       18.7646983706
Zr               9.5430200702        0.0004590101       10.0961042919
B               11.1334165062        0.9186999252       11.7806934981
B                9.5419801779        1.8363505867       11.7825138398
Zr               9.5434659981        0.0003451142       13.5490133299
B               11.1403098265        0.9220244035       15.3259020526
B                9.5468913317        1.8353841374       15.3205675995
Zr               9.5550468043        0.0064221769       17.1147151969
B               11.1356666038        0.9189929435       18.7724886829
B                9.5439682269        1.8343072773       18.7685905402
Zr               7.9518561344        2.7552273714       10.0956331895
B                9.5414940708        3.6725478317       11.7820134857
B                7.9496304898        4.5897577454       11.7823544399
Zr               7.9512888105        2.7541646339       13.5508367851
B                9.5418844944        3.6731381437       15.3233390261
B                7.9439379071        4.5921166547       15.3310672288
Zr               7.9674154656        2.7327777214       17.0847462156
B                9.5353379717        3.6583067050       18.7756322857
B                7.9744183534        4.5435375014       18.7938793721
Zr               6.3611688022        5.5085737717       10.0961766634
B                7.9493851633        6.4254294105       11.7833934677
B                6.3597160588        7.3434541755       11.7824229119
Zr               6.3591967310        5.5070284989       13.5525793861
B                7.9395204312        6.4190510517       15.3415536415
B                6.3593876681        7.3363175580       15.3312715503
Zr               6.3370238302        5.4935337145       17.2295131915
B                7.9679057468        6.4350990938       18.7659056478
B                6.3333933495        7.3860980754       18.7943664063
Zr               4.7720195424        8.2626678849       10.0956736340
B                6.3612943647        9.1806258515       11.7820470100
B                4.7714230591       10.0990947915       11.7825720191
Zr               4.7710971385        8.2621282661       13.5511033155
B                6.3623891760        9.1797305544       15.3234917980
B                4.7734950678       10.1028030554       15.3208027499
Zr               4.7613975491        8.2857366638       17.0854352576
B                6.3470507158        9.1808722975       18.7759532537
B                4.7711707920       10.1002976883       18.7695708499
O                3.9751072523        4.1296848968       20.0109403420
End final coordinates



     Writing all to output data dir ./tmp/pwscf.save/ :
     XML data file, charge density, pseudopotentials, collected wavefunctions

     init_run     :     44.51s CPU     47.76s WALL (       1 calls)
     electrons    :   9993.63s CPU  10640.39s WALL (      16 calls)
     update_pot   :     14.57s CPU     15.94s WALL (      15 calls)
     forces       :    289.27s CPU    301.51s WALL (      16 calls)
     stress       :   1004.89s CPU   1024.64s WALL (      16 calls)

     Called by init_run:
     wfcinit      :     37.90s CPU     40.37s WALL (       1 calls)
     potinit      :      1.62s CPU      1.70s WALL (       1 calls)
     hinit0       :      1.47s CPU      1.84s WALL (       1 calls)

     Called by electrons:
     c_bands      :   8689.57s CPU   9122.52s WALL (     165 calls)
     sum_band     :    913.04s CPU   1026.24s WALL (     165 calls)
     v_of_rho     :     67.83s CPU     73.38s WALL (     175 calls)
     newd         :     96.88s CPU    132.03s WALL (     175 calls)
     PAW_pot      :     66.70s CPU     67.42s WALL (     190 calls)
     mix_rho      :    176.06s CPU    229.10s WALL (     165 calls)

     Called by c_bands:
     init_us_2    :    180.47s CPU    184.23s WALL (     756 calls)
     cegterg      :   8458.86s CPU   8887.54s WALL (     330 calls)

     Called by *egterg:
     cdiaghg      :    210.35s CPU    221.63s WALL (    1554 calls)
     h_psi        :   4671.60s CPU   5003.74s WALL (    1598 calls)
     s_psi        :   1051.97s CPU   1060.61s WALL (    1598 calls)
     g_psi        :     15.50s CPU     15.88s WALL (    1266 calls)

     Called by h_psi:
     h_psi:calbec :   1103.76s CPU   1119.83s WALL (    1598 calls)
     vloc_psi     :   2482.38s CPU   2769.81s WALL (    1598 calls)
     add_vuspsi   :   1058.44s CPU   1067.42s WALL (    1598 calls)

     General routines
     calbec       :   2340.11s CPU   2374.08s WALL (    2502 calls)
     fft          :     53.12s CPU     62.38s WALL (    2664 calls)
     ffts         :     44.69s CPU     95.17s WALL (   17929 calls)
     fftw         :   1631.76s CPU   1933.69s WALL (  977090 calls)
     interpolate  :      5.59s CPU      6.41s WALL (     175 calls)

     Parallel routines

     PWSCF        :  11419.95s CPU  12129.10s WALL


   This run was terminated on:  15:38:29  14Nov2025            

=------------------------------------------------------------------------------=
   JOB DONE.
=------------------------------------------------------------------------------=
