
     Program PWSCF v.7.4 starts on 10Jun2025 at 13:49:38 

     This program is part of the open-source Quantum ESPRESSO suite
     for quantum simulation of materials; please cite
         "P. Giannozzi et al., J. Phys.:Condens. Matter 21 395502 (2009);
         "P. Giannozzi et al., J. Phys.:Condens. Matter 29 465901 (2017);
         "P. Giannozzi et al., J. Chem. Phys. 152 154105 (2020);
          URL http://www.quantum-espresso.org", 
     in publications or presentations arising from this work. More details at
     http://www.quantum-espresso.org/quote

     Parallel version (MPI & OpenMP), running on      14 processor cores
     Number of MPI processes:                14
     Threads/MPI process:                     1

     MPI processes distributed on     1 nodes
     93476 MiB available memory on the printing compute node when the environment starts

     Reading input from qe.in

     Current dimensions of program PWSCF are:
     Max number of different atomic species (ntypx) = 10
     Max number of k-points (npk) =  40000
     Max angular momentum in pseudopotentials (lmaxx) =  4
     file Zr.pbe-spn-kjpaw_psl.1.0.0.UPF: wavefunction(s)  4S 4P renormalized

     K-points division:     npool     =      14
     Subspace diagonalization in iterative solution of the eigenvalue problem:
     a serial algorithm will be used


     G-vector sticks info
     --------------------
     sticks:   dense  smooth     PW     G-vecs:    dense   smooth      PW
     Sum        1003     499    151                28345     9997    1703

     Using Slab Decomposition



     bravais-lattice index     =            4
     lattice parameter (alat)  =       6.0093  a.u.
     unit-cell volume          =     209.5066 (a.u.)^3
     number of atoms/cell      =            3
     number of atomic types    =            2
     number of electrons       =        18.00
     number of Kohn-Sham states=           13
     kinetic-energy cutoff     =      50.0000  Ry
     charge density cutoff     =     400.0000  Ry
     scf convergence threshold =      1.0E-08
     mixing beta               =       0.7000
     number of iterations used =            8  plain     mixing
     Exchange-correlation= SLA  PW   PBX  PBC
                           (   1   4   3   4   0   0   0)

     celldm(1)=   6.009329  celldm(2)=   0.000000  celldm(3)=   1.114780
     celldm(4)=   0.000000  celldm(5)=   0.000000  celldm(6)=   0.000000

     crystal axes: (cart. coord. in units of alat)
               a(1) = (   1.000000   0.000000   0.000000 )  
               a(2) = (  -0.500000   0.866025   0.000000 )  
               a(3) = (   0.000000   0.000000   1.114780 )  

     reciprocal axes: (cart. coord. in units 2 pi/alat)
               b(1) = (  1.000000  0.577350 -0.000000 )  
               b(2) = (  0.000000  1.154701  0.000000 )  
               b(3) = (  0.000000 -0.000000  0.897038 )  


     PseudoPot. # 1 for Zr read from file:
     /home/cganley2/qe-projects/common/pseudopotentials/SSSP_1.3.0_PBE_precision/Zr.pbe-spn-kjpaw_psl.1.0.0.UPF
     MD5 check sum: 83bf7718257ce689f169bc8534fef73a
     Pseudo is Projector augmented-wave + core cor, Zval = 12.0
     Generated using &quot;atomic&quot; code by A. Dal Corso  v.6.2.2
     Shape of augmentation charge: PSQ
     Using radial grid of 1225 points,  6 beta functions with: 
                l(1) =   0
                l(2) =   0
                l(3) =   1
                l(4) =   1
                l(5) =   2
                l(6) =   2
     Q(r) pseudized with 0 coefficients 


     PseudoPot. # 2 for B  read from file:
     /home/cganley2/qe-projects/common/pseudopotentials/SSSP_1.3.0_PBE_precision/B.pbe-n-kjpaw_psl.1.0.0.UPF
     MD5 check sum: 757e44352cacacece234d5873ff275d1
     Pseudo is Projector augmented-wave + core cor, Zval =  3.0
     Generated using &quot;atomic&quot; code by A. Dal Corso  v.6.3
     Shape of augmentation charge: PSQ
     Using radial grid of 1059 points,  4 beta functions with: 
                l(1) =   0
                l(2) =   0
                l(3) =   1
                l(4) =   1
     Q(r) pseudized with 0 coefficients 


     atomic species   valence    mass     pseudopotential
     Zr               12.00    91.22400     Zr( 1.00)
     B                 3.00    10.81000     B ( 1.00)

     No symmetry found



   Cartesian axes

     site n.     atom                  positions (alat units)
         1        Zr     tau(   1) = (   0.0000000   0.0000000   0.0000000  )
         2        B      tau(   2) = (   0.5000000   0.2886751   0.5573899  )
         3        B      tau(   3) = (  -0.0000000   0.5773503   0.5573899  )

     number of k points=    14  Gaussian smearing, width (Ry)=  0.0100
                       cart. coord. in units 2pi/alat
        k(    1) = (   0.0000000   0.0000000   0.0000000), wk =   0.0740741
        k(    2) = (   0.0000000   0.0000000   0.2990127), wk =   0.1481481
        k(    3) = (   0.0000000   0.3849002   0.0000000), wk =   0.1481481
        k(    4) = (   0.0000000   0.3849002   0.2990127), wk =   0.1481481
        k(    5) = (   0.0000000   0.3849002  -0.2990127), wk =   0.1481481
        k(    6) = (   0.3333333   0.1924501   0.0000000), wk =   0.1481481
        k(    7) = (   0.3333333   0.1924501   0.2990127), wk =   0.1481481
        k(    8) = (   0.3333333   0.1924501  -0.2990127), wk =   0.1481481
        k(    9) = (   0.3333333   0.5773503   0.0000000), wk =   0.1481481
        k(   10) = (   0.3333333   0.5773503   0.2990127), wk =   0.1481481
        k(   11) = (   0.3333333   0.5773503  -0.2990127), wk =   0.1481481
        k(   12) = (   0.3333333  -0.1924501   0.0000000), wk =   0.1481481
        k(   13) = (   0.3333333  -0.1924501   0.2990127), wk =   0.1481481
        k(   14) = (   0.3333333  -0.1924501  -0.2990127), wk =   0.1481481

     Dense  grid:    28345 G-vectors     FFT dimensions: (  40,  40,  45)

     Smooth grid:     9997 G-vectors     FFT dimensions: (  27,  27,  32)

     Estimated max dynamical RAM per process >      27.97 MB

     Estimated total dynamical RAM >     301.63 MB

     Initial potential from superposition of free atoms

     starting charge      17.9973, renormalised to      18.0000
     Starting wfcs are   21 randomized atomic wfcs
     Checking if some PAW data can be deallocated... 

     total cpu time spent up to now is        1.5 secs

     per-process dynamical memory:   133.6 Mb

     Self-consistent Calculation

     iteration #  1     ecut=    50.00 Ry     beta= 0.70
     Davidson diagonalization with overlap
     ethr =  1.00E-02,  avg # of iterations =  2.0

     total cpu time spent up to now is        1.7 secs

     total energy              =    -330.23032706 Ry
     estimated scf accuracy    <       0.28273579 Ry

     iteration #  2     ecut=    50.00 Ry     beta= 0.70
     Davidson diagonalization with overlap
     ethr =  1.57E-03,  avg # of iterations =  3.0

     total cpu time spent up to now is        1.8 secs

     total energy              =    -330.28324605 Ry
     estimated scf accuracy    <       0.31864985 Ry

     iteration #  3     ecut=    50.00 Ry     beta= 0.70
     Davidson diagonalization with overlap
     ethr =  1.57E-03,  avg # of iterations =  2.0

     total cpu time spent up to now is        2.0 secs

     total energy              =    -330.35560712 Ry
     estimated scf accuracy    <       0.00162291 Ry

     iteration #  4     ecut=    50.00 Ry     beta= 0.70
     Davidson diagonalization with overlap
     ethr =  9.02E-06,  avg # of iterations =  4.3

     total cpu time spent up to now is        2.1 secs

     total energy              =    -330.35617201 Ry
     estimated scf accuracy    <       0.00065246 Ry

     iteration #  5     ecut=    50.00 Ry     beta= 0.70
     Davidson diagonalization with overlap
     ethr =  3.62E-06,  avg # of iterations =  2.0

     total cpu time spent up to now is        2.2 secs

     total energy              =    -330.35630054 Ry
     estimated scf accuracy    <       0.00000205 Ry

     iteration #  6     ecut=    50.00 Ry     beta= 0.70
     Davidson diagonalization with overlap
     ethr =  1.14E-08,  avg # of iterations =  4.1

     total cpu time spent up to now is        2.4 secs

     total energy              =    -330.35630307 Ry
     estimated scf accuracy    <       0.00000300 Ry

     iteration #  7     ecut=    50.00 Ry     beta= 0.70
     Davidson diagonalization with overlap
     ethr =  1.14E-08,  avg # of iterations =  2.0

     total cpu time spent up to now is        2.5 secs

     total energy              =    -330.35630320 Ry
     estimated scf accuracy    <       0.00000033 Ry

     iteration #  8     ecut=    50.00 Ry     beta= 0.70
     Davidson diagonalization with overlap
     ethr =  1.86E-09,  avg # of iterations =  2.6

     total cpu time spent up to now is        2.7 secs

     End of self-consistent calculation

          k = 0.0000 0.0000 0.0000 (  1263 PWs)   bands (ev):

   -33.0069 -11.1675 -10.6616 -10.6616   3.0662  13.1096  13.1243  13.1243
    13.3766  19.0403  19.0403  19.8240  19.8241

          k = 0.0000 0.0000 0.2990 (  1263 PWs)   bands (ev):

   -32.9933 -11.4285 -10.6433 -10.6433   4.4079   9.6684  14.1187  14.1187
    16.4849  16.4849  16.5920  17.4851  17.4851

          k = 0.0000 0.3849 0.0000 (  1262 PWs)   bands (ev):

   -32.9232 -11.3536 -11.0423 -10.8175   5.0277   9.3832  12.1314  12.9024
    13.4763  18.2031  18.5113  18.6679  19.6307

          k = 0.0000 0.3849 0.2990 (  1248 PWs)   bands (ev):

   -32.9103 -11.3168 -11.2632 -10.7927   5.4724   9.4012  11.8122  11.9261
    13.5212  17.5445  18.8508  20.7809  21.0056

          k = 0.0000 0.3849-0.2990 (  1248 PWs)   bands (ev):

   -32.9103 -11.3168 -11.2632 -10.7927   5.4724   9.4012  11.8122  11.9261
    13.5212  17.5445  18.8508  20.7809  21.0056

          k = 0.3333 0.1925 0.0000 (  1262 PWs)   bands (ev):

   -32.9232 -11.3536 -11.0423 -10.8175   5.0277   9.3832  12.1314  12.9024
    13.4763  18.2031  18.5113  18.6679  19.6307

          k = 0.3333 0.1925 0.2990 (  1248 PWs)   bands (ev):

   -32.9103 -11.3168 -11.2632 -10.7927   5.4724   9.4012  11.8122  11.9261
    13.5212  17.5445  18.8508  20.7809  21.0056

          k = 0.3333 0.1925-0.2990 (  1248 PWs)   bands (ev):

   -32.9103 -11.3168 -11.2632 -10.7927   5.4724   9.4012  11.8122  11.9261
    13.5212  17.5445  18.8507  20.7809  21.0056

          k = 0.3333 0.5774 0.0000 (  1251 PWs)   bands (ev):

   -32.8807 -11.2971 -11.2971 -10.9789   7.9845   7.9845   8.9025  13.2809
    13.2809  17.2255  17.2255  18.8283  24.1327

          k = 0.3333 0.5774 0.2990 (  1245 PWs)   bands (ev):

   -32.8683 -11.2584 -11.2584 -11.1829   7.2653   7.2653  10.2990  13.0291
    13.0291  19.5155  20.1481  20.1481  22.6892

          k = 0.3333 0.5774-0.2990 (  1245 PWs)   bands (ev):

   -32.8683 -11.2584 -11.2584 -11.1829   7.2653   7.2653  10.2990  13.0291
    13.0291  19.5155  20.1481  20.1481  22.6892

          k = 0.3333-0.1925 0.0000 (  1262 PWs)   bands (ev):

   -32.9232 -11.3536 -11.0423 -10.8175   5.0277   9.3832  12.1314  12.9024
    13.4763  18.2031  18.5113  18.6679  19.6307

          k = 0.3333-0.1925 0.2990 (  1248 PWs)   bands (ev):

   -32.9103 -11.3168 -11.2632 -10.7927   5.4724   9.4012  11.8122  11.9261
    13.5212  17.5445  18.8507  20.7809  21.0056

          k = 0.3333-0.1925-0.2990 (  1248 PWs)   bands (ev):

   -32.9103 -11.3168 -11.2632 -10.7927   5.4724   9.4012  11.8122  11.9261
    13.5212  17.5445  18.8507  20.7809  21.0056

     the Fermi energy is    16.4720 ev

!    total energy              =    -330.35630329 Ry
     total all-electron energy =     -7297.223971 Ry
     estimated scf accuracy    <          3.8E-09 Ry
     smearing contrib. (-TS)   =      -0.00102040 Ry
     internal energy E=F+TS    =    -330.35528289 Ry

     The total energy is F=E-TS. E is the sum of the following terms:
     one-electron contribution =      -2.05727540 Ry
     hartree contribution      =      12.46829212 Ry
     xc contribution           =     -24.05127234 Ry
     ewald contribution        =     -96.27913793 Ry
     one-center paw contrib.   =    -220.43588935 Ry

     convergence has been achieved in   8 iterations

     Forces acting on atoms (cartesian axes, Ry/au):

     atom    1 type  1   force =     0.00000026    0.00000024   -0.00000054
     atom    2 type  2   force =    -0.00000005    0.00000036    0.00000015
     atom    3 type  2   force =    -0.00000022   -0.00000060    0.00000039

     Total force =     0.000001     Total SCF correction =     0.000003
     SCF correction compared to forces is large: reduce conv_thr to get better values


     Computing stress (Cartesian axis) and pressure

          total   stress  (Ry/bohr**3)                   (kbar)     P=      -19.86
   0.00000835   0.00000000   0.00000000            1.23        0.00        0.00
   0.00000000   0.00000832  -0.00000000            0.00        1.22       -0.00
   0.00000000  -0.00000000  -0.00042164            0.00       -0.00      -62.03


     Writing all to output data dir ./tmp/zrb2-50.save/ :
     XML data file, charge density, pseudopotentials, collected wavefunctions

     init_run     :      1.17s CPU      1.25s WALL (       1 calls)
     electrons    :      1.10s CPU      1.18s WALL (       1 calls)
     forces       :      0.06s CPU      0.06s WALL (       1 calls)
     stress       :      0.12s CPU      0.12s WALL (       1 calls)

     Called by init_run:
     wfcinit      :      0.12s CPU      0.16s WALL (       1 calls)
     potinit      :      0.31s CPU      0.33s WALL (       1 calls)
     hinit0       :      0.71s CPU      0.73s WALL (       1 calls)

     Called by electrons:
     c_bands      :      0.14s CPU      0.14s WALL (       8 calls)
     sum_band     :      0.15s CPU      0.16s WALL (       8 calls)
     v_of_rho     :      0.31s CPU      0.32s WALL (       9 calls)
     newd         :      0.08s CPU      0.09s WALL (       9 calls)
     PAW_pot      :      0.43s CPU      0.45s WALL (       9 calls)
     mix_rho      :      0.01s CPU      0.01s WALL (       8 calls)

     Called by c_bands:
     init_us_2    :      0.01s CPU      0.01s WALL (      18 calls)
     cegterg      :      0.11s CPU      0.11s WALL (       8 calls)

     Called by *egterg:
     cdiaghg      :      0.00s CPU      0.03s WALL (      25 calls)
     h_psi        :      0.21s CPU      0.22s WALL (      26 calls)
     s_psi        :      0.00s CPU      0.00s WALL (      26 calls)
     g_psi        :      0.00s CPU      0.00s WALL (      17 calls)

     Called by h_psi:
     h_psi:calbec :      0.00s CPU      0.01s WALL (      26 calls)
     vloc_psi     :      0.20s CPU      0.21s WALL (      26 calls)
     add_vuspsi   :      0.00s CPU      0.00s WALL (      26 calls)

     General routines
     calbec       :      0.01s CPU      0.01s WALL (      51 calls)
     fft          :      0.40s CPU      0.42s WALL (     140 calls)
     ffts         :      0.18s CPU      0.18s WALL (      17 calls)
     fftw         :      0.20s CPU      0.20s WALL (     646 calls)
     interpolate  :      0.19s CPU      0.19s WALL (       9 calls)

     Parallel routines

     PWSCF        :      2.60s CPU      3.09s WALL


   This run was terminated on:  13:49:42  10Jun2025            

=------------------------------------------------------------------------------=
   JOB DONE.
=------------------------------------------------------------------------------=
