
     Program PWSCF v.7.4 starts on 10Jun2025 at 13:49:38 

     This program is part of the open-source Quantum ESPRESSO suite
     for quantum simulation of materials; please cite
         "P. Giannozzi et al., J. Phys.:Condens. Matter 21 395502 (2009);
         "P. Giannozzi et al., J. Phys.:Condens. Matter 29 465901 (2017);
         "P. Giannozzi et al., J. Chem. Phys. 152 154105 (2020);
          URL http://www.quantum-espresso.org", 
     in publications or presentations arising from this work. More details at
     http://www.quantum-espresso.org/quote

     Parallel version (MPI & OpenMP), running on      14 processor cores
     Number of MPI processes:                14
     Threads/MPI process:                     1

     MPI processes distributed on     1 nodes
     16212 MiB available memory on the printing compute node when the environment starts

     Reading input from qe.in

     Current dimensions of program PWSCF are:
     Max number of different atomic species (ntypx) = 10
     Max number of k-points (npk) =  40000
     Max angular momentum in pseudopotentials (lmaxx) =  4
     file Zr.pbe-spn-kjpaw_psl.1.0.0.UPF: wavefunction(s)  4S 4P renormalized

     K-points division:     npool     =      14
     Subspace diagonalization in iterative solution of the eigenvalue problem:
     a serial algorithm will be used


     G-vector sticks info
     --------------------
     sticks:   dense  smooth     PW     G-vecs:    dense   smooth      PW
     Sum         595     301     91                13155     4703     847

     Using Slab Decomposition



     bravais-lattice index     =            4
     lattice parameter (alat)  =       6.0093  a.u.
     unit-cell volume          =     209.5066 (a.u.)^3
     number of atoms/cell      =            3
     number of atomic types    =            2
     number of electrons       =        18.00
     number of Kohn-Sham states=           13
     kinetic-energy cutoff     =      30.0000  Ry
     charge density cutoff     =     240.0000  Ry
     scf convergence threshold =      1.0E-08
     mixing beta               =       0.7000
     number of iterations used =            8  plain     mixing
     Exchange-correlation= SLA  PW   PBX  PBC
                           (   1   4   3   4   0   0   0)

     celldm(1)=   6.009329  celldm(2)=   0.000000  celldm(3)=   1.114780
     celldm(4)=   0.000000  celldm(5)=   0.000000  celldm(6)=   0.000000

     crystal axes: (cart. coord. in units of alat)
               a(1) = (   1.000000   0.000000   0.000000 )  
               a(2) = (  -0.500000   0.866025   0.000000 )  
               a(3) = (   0.000000   0.000000   1.114780 )  

     reciprocal axes: (cart. coord. in units 2 pi/alat)
               b(1) = (  1.000000  0.577350 -0.000000 )  
               b(2) = (  0.000000  1.154701  0.000000 )  
               b(3) = (  0.000000 -0.000000  0.897038 )  


     PseudoPot. # 1 for Zr read from file:
     /home/cganley2/qe-projects/common/pseudopotentials/SSSP_1.3.0_PBE_precision/Zr.pbe-spn-kjpaw_psl.1.0.0.UPF
     MD5 check sum: 83bf7718257ce689f169bc8534fef73a
     Pseudo is Projector augmented-wave + core cor, Zval = 12.0
     Generated using &quot;atomic&quot; code by A. Dal Corso  v.6.2.2
     Shape of augmentation charge: PSQ
     Using radial grid of 1225 points,  6 beta functions with: 
                l(1) =   0
                l(2) =   0
                l(3) =   1
                l(4) =   1
                l(5) =   2
                l(6) =   2
     Q(r) pseudized with 0 coefficients 


     PseudoPot. # 2 for B  read from file:
     /home/cganley2/qe-projects/common/pseudopotentials/SSSP_1.3.0_PBE_precision/B.pbe-n-kjpaw_psl.1.0.0.UPF
     MD5 check sum: 757e44352cacacece234d5873ff275d1
     Pseudo is Projector augmented-wave + core cor, Zval =  3.0
     Generated using &quot;atomic&quot; code by A. Dal Corso  v.6.3
     Shape of augmentation charge: PSQ
     Using radial grid of 1059 points,  4 beta functions with: 
                l(1) =   0
                l(2) =   0
                l(3) =   1
                l(4) =   1
     Q(r) pseudized with 0 coefficients 


     atomic species   valence    mass     pseudopotential
     Zr               12.00    91.22400     Zr( 1.00)
     B                 3.00    10.81000     B ( 1.00)

     No symmetry found



   Cartesian axes

     site n.     atom                  positions (alat units)
         1        Zr     tau(   1) = (   0.0000000   0.0000000   0.0000000  )
         2        B      tau(   2) = (   0.5000000   0.2886751   0.5573899  )
         3        B      tau(   3) = (  -0.0000000   0.5773503   0.5573899  )

     number of k points=    14  Gaussian smearing, width (Ry)=  0.0100
                       cart. coord. in units 2pi/alat
        k(    1) = (   0.0000000   0.0000000   0.0000000), wk =   0.0740741
        k(    2) = (   0.0000000   0.0000000   0.2990127), wk =   0.1481481
        k(    3) = (   0.0000000   0.3849002   0.0000000), wk =   0.1481481
        k(    4) = (   0.0000000   0.3849002   0.2990127), wk =   0.1481481
        k(    5) = (   0.0000000   0.3849002  -0.2990127), wk =   0.1481481
        k(    6) = (   0.3333333   0.1924501   0.0000000), wk =   0.1481481
        k(    7) = (   0.3333333   0.1924501   0.2990127), wk =   0.1481481
        k(    8) = (   0.3333333   0.1924501  -0.2990127), wk =   0.1481481
        k(    9) = (   0.3333333   0.5773503   0.0000000), wk =   0.1481481
        k(   10) = (   0.3333333   0.5773503   0.2990127), wk =   0.1481481
        k(   11) = (   0.3333333   0.5773503  -0.2990127), wk =   0.1481481
        k(   12) = (   0.3333333  -0.1924501   0.0000000), wk =   0.1481481
        k(   13) = (   0.3333333  -0.1924501   0.2990127), wk =   0.1481481
        k(   14) = (   0.3333333  -0.1924501  -0.2990127), wk =   0.1481481

     Dense  grid:    13155 G-vectors     FFT dimensions: (  30,  30,  36)

     Smooth grid:     4703 G-vectors     FFT dimensions: (  24,  24,  24)

     Estimated max dynamical RAM per process >      13.91 MB

     Estimated total dynamical RAM >     152.98 MB

     Check: negative core charge=   -0.000003

     Initial potential from superposition of free atoms

     starting charge      17.9973, renormalised to      18.0000
     Starting wfcs are   21 randomized atomic wfcs
     Checking if some PAW data can be deallocated... 

     total cpu time spent up to now is        1.3 secs

     per-process dynamical memory:   126.2 Mb

     Self-consistent Calculation

     iteration #  1     ecut=    30.00 Ry     beta= 0.70
     Davidson diagonalization with overlap
     ethr =  1.00E-02,  avg # of iterations =  2.0

     total cpu time spent up to now is        1.4 secs

     total energy              =    -330.20499650 Ry
     estimated scf accuracy    <       0.28753908 Ry

     iteration #  2     ecut=    30.00 Ry     beta= 0.70
     Davidson diagonalization with overlap
     ethr =  1.60E-03,  avg # of iterations =  3.0

     total cpu time spent up to now is        1.5 secs

     total energy              =    -330.26035605 Ry
     estimated scf accuracy    <       0.31776001 Ry

     iteration #  3     ecut=    30.00 Ry     beta= 0.70
     Davidson diagonalization with overlap
     ethr =  1.60E-03,  avg # of iterations =  2.0

     total cpu time spent up to now is        1.6 secs

     total energy              =    -330.33246377 Ry
     estimated scf accuracy    <       0.00163423 Ry

     iteration #  4     ecut=    30.00 Ry     beta= 0.70
     Davidson diagonalization with overlap
     ethr =  9.08E-06,  avg # of iterations =  4.2

     total cpu time spent up to now is        1.7 secs

     total energy              =    -330.33301243 Ry
     estimated scf accuracy    <       0.00061680 Ry

     iteration #  5     ecut=    30.00 Ry     beta= 0.70
     Davidson diagonalization with overlap
     ethr =  3.43E-06,  avg # of iterations =  2.0

     total cpu time spent up to now is        1.8 secs

     total energy              =    -330.33314144 Ry
     estimated scf accuracy    <       0.00000137 Ry

     iteration #  6     ecut=    30.00 Ry     beta= 0.70
     Davidson diagonalization with overlap
     ethr =  7.59E-09,  avg # of iterations =  4.2

     total cpu time spent up to now is        1.8 secs

     total energy              =    -330.33314281 Ry
     estimated scf accuracy    <       0.00000241 Ry

     iteration #  7     ecut=    30.00 Ry     beta= 0.70
     Davidson diagonalization with overlap
     ethr =  7.59E-09,  avg # of iterations =  2.1

     total cpu time spent up to now is        1.9 secs

     total energy              =    -330.33314318 Ry
     estimated scf accuracy    <       0.00000005 Ry

     iteration #  8     ecut=    30.00 Ry     beta= 0.70
     Davidson diagonalization with overlap
     ethr =  2.54E-10,  avg # of iterations =  3.8

     total cpu time spent up to now is        2.0 secs

     End of self-consistent calculation

          k = 0.0000 0.0000 0.0000 (   563 PWs)   bands (ev):

   -33.0612 -11.1925 -10.6829 -10.6829   3.0688  13.1300  13.1472  13.1472
    13.3869  19.1053  19.1053  19.8848  19.8849

          k = 0.0000 0.0000 0.2990 (   588 PWs)   bands (ev):

   -33.0478 -11.4575 -10.6668 -10.6668   4.4109   9.6686  14.1406  14.1406
    16.5117  16.5117  16.6203  17.5293  17.5293

          k = 0.0000 0.3849 0.0000 (   587 PWs)   bands (ev):

   -32.9780 -11.3811 -11.0704 -10.8441   5.0312   9.3963  12.1426  12.9166
    13.4963  18.2525  18.5408  18.6823  19.6787

          k = 0.0000 0.3849 0.2990 (   585 PWs)   bands (ev):

   -32.9652 -11.3425 -11.2886 -10.8209   5.4788   9.4124  11.8185  11.9407
    13.5373  17.5717  18.9028  20.8247  21.0685

          k = 0.0000 0.3849-0.2990 (   585 PWs)   bands (ev):

   -32.9652 -11.3425 -11.2886 -10.8209   5.4788   9.4124  11.8185  11.9407
    13.5373  17.5717  18.9028  20.8247  21.0685

          k = 0.3333 0.1925 0.0000 (   587 PWs)   bands (ev):

   -32.9780 -11.3811 -11.0704 -10.8441   5.0312   9.3963  12.1426  12.9166
    13.4963  18.2525  18.5408  18.6823  19.6787

          k = 0.3333 0.1925 0.2990 (   585 PWs)   bands (ev):

   -32.9652 -11.3425 -11.2886 -10.8209   5.4788   9.4124  11.8185  11.9407
    13.5373  17.5717  18.9028  20.8247  21.0685

          k = 0.3333 0.1925-0.2990 (   585 PWs)   bands (ev):

   -32.9652 -11.3425 -11.2886 -10.8209   5.4788   9.4124  11.8185  11.9407
    13.5373  17.5717  18.9028  20.8247  21.0685

          k = 0.3333 0.5774 0.0000 (   585 PWs)   bands (ev):

   -32.9357 -11.3234 -11.3234 -11.0083   7.9924   7.9925   8.9124  13.2929
    13.2930  17.2558  17.2558  18.8738  24.1997

          k = 0.3333 0.5774 0.2990 (   567 PWs)   bands (ev):

   -32.9234 -11.2803 -11.2803 -11.2060   7.2778   7.2778  10.3114  13.0466
    13.0466  19.5761  20.2089  20.2089  22.7455

          k = 0.3333 0.5774-0.2990 (   567 PWs)   bands (ev):

   -32.9234 -11.2803 -11.2803 -11.2060   7.2778   7.2778  10.3114  13.0466
    13.0466  19.5761  20.2089  20.2089  22.7455

          k = 0.3333-0.1925 0.0000 (   587 PWs)   bands (ev):

   -32.9780 -11.3811 -11.0704 -10.8441   5.0312   9.3963  12.1426  12.9166
    13.4963  18.2525  18.5408  18.6823  19.6787

          k = 0.3333-0.1925 0.2990 (   585 PWs)   bands (ev):

   -32.9652 -11.3425 -11.2886 -10.8209   5.4788   9.4124  11.8185  11.9407
    13.5373  17.5717  18.9028  20.8247  21.0685

          k = 0.3333-0.1925-0.2990 (   585 PWs)   bands (ev):

   -32.9652 -11.3425 -11.2886 -10.8209   5.4788   9.4124  11.8185  11.9407
    13.5373  17.5717  18.9028  20.8247  21.0685

     the Fermi energy is    16.4991 ev

!    total energy              =    -330.33314320 Ry
     total all-electron energy =     -7297.200811 Ry
     estimated scf accuracy    <          5.5E-09 Ry
     smearing contrib. (-TS)   =      -0.00101783 Ry
     internal energy E=F+TS    =    -330.33212537 Ry

     The total energy is F=E-TS. E is the sum of the following terms:
     one-electron contribution =      -2.04460549 Ry
     hartree contribution      =      12.45171388 Ry
     xc contribution           =     -24.04645490 Ry
     ewald contribution        =     -96.27913795 Ry
     one-center paw contrib.   =    -220.41364091 Ry

     convergence has been achieved in   8 iterations

     Forces acting on atoms (cartesian axes, Ry/au):

     atom    1 type  1   force =     0.00000006    0.00000052   -0.00000167
     atom    2 type  2   force =     0.00000018   -0.00000004    0.00000078
     atom    3 type  2   force =    -0.00000023   -0.00000048    0.00000089

     Total force =     0.000002     Total SCF correction =     0.000008
     SCF correction compared to forces is large: reduce conv_thr to get better values


     Computing stress (Cartesian axis) and pressure

          total   stress  (Ry/bohr**3)                   (kbar)     P=     -101.10
  -0.00054654  -0.00000002   0.00000000          -80.40       -0.00        0.00
  -0.00000002  -0.00054653  -0.00000000           -0.00      -80.40       -0.00
   0.00000000  -0.00000000  -0.00096878            0.00       -0.00     -142.51


     Writing all to output data dir ./tmp/zrb2-30.save/ :
     XML data file, charge density, pseudopotentials, collected wavefunctions

     init_run     :      1.11s CPU      1.12s WALL (       1 calls)
     electrons    :      0.68s CPU      0.73s WALL (       1 calls)
     forces       :      0.02s CPU      0.02s WALL (       1 calls)
     stress       :      0.05s CPU      0.05s WALL (       1 calls)

     Called by init_run:
     wfcinit      :      0.17s CPU      0.17s WALL (       1 calls)
     potinit      :      0.33s CPU      0.33s WALL (       1 calls)
     hinit0       :      0.60s CPU      0.60s WALL (       1 calls)

     Called by electrons:
     c_bands      :      0.07s CPU      0.07s WALL (       8 calls)
     sum_band     :      0.06s CPU      0.06s WALL (       8 calls)
     v_of_rho     :      0.11s CPU      0.11s WALL (       9 calls)
     newd         :      0.03s CPU      0.03s WALL (       9 calls)
     PAW_pot      :      0.44s CPU      0.45s WALL (       9 calls)
     mix_rho      :      0.01s CPU      0.01s WALL (       8 calls)

     Called by c_bands:
     init_us_2    :      0.00s CPU      0.00s WALL (      18 calls)
     cegterg      :      0.05s CPU      0.05s WALL (       8 calls)

     Called by *egterg:
     cdiaghg      :      0.01s CPU      0.01s WALL (      26 calls)
     h_psi        :      0.21s CPU      0.21s WALL (      27 calls)
     s_psi        :      0.00s CPU      0.00s WALL (      27 calls)
     g_psi        :      0.00s CPU      0.00s WALL (      18 calls)

     Called by h_psi:
     h_psi:calbec :      0.00s CPU      0.00s WALL (      27 calls)
     vloc_psi     :      0.20s CPU      0.20s WALL (      27 calls)
     add_vuspsi   :      0.00s CPU      0.00s WALL (      27 calls)

     General routines
     calbec       :      0.00s CPU      0.00s WALL (      52 calls)
     fft          :      0.33s CPU      0.33s WALL (     140 calls)
     ffts         :      0.23s CPU      0.23s WALL (      17 calls)
     fftw         :      0.20s CPU      0.20s WALL (     658 calls)
     interpolate  :      0.23s CPU      0.23s WALL (       9 calls)

     Parallel routines

     PWSCF        :      2.03s CPU      2.28s WALL


   This run was terminated on:  13:49:40  10Jun2025            

=------------------------------------------------------------------------------=
   JOB DONE.
=------------------------------------------------------------------------------=
