
     Program PWSCF v.7.4 starts on 10Jun2025 at 13:49:38 

     This program is part of the open-source Quantum ESPRESSO suite
     for quantum simulation of materials; please cite
         "P. Giannozzi et al., J. Phys.:Condens. Matter 21 395502 (2009);
         "P. Giannozzi et al., J. Phys.:Condens. Matter 29 465901 (2017);
         "P. Giannozzi et al., J. Chem. Phys. 152 154105 (2020);
          URL http://www.quantum-espresso.org", 
     in publications or presentations arising from this work. More details at
     http://www.quantum-espresso.org/quote

     Parallel version (MPI & OpenMP), running on      14 processor cores
     Number of MPI processes:                14
     Threads/MPI process:                     1

     MPI processes distributed on     1 nodes
     13428 MiB available memory on the printing compute node when the environment starts

     Reading input from qe.in

     Current dimensions of program PWSCF are:
     Max number of different atomic species (ntypx) = 10
     Max number of k-points (npk) =  40000
     Max angular momentum in pseudopotentials (lmaxx) =  4
     file Zr.pbe-spn-kjpaw_psl.1.0.0.UPF: wavefunction(s)  4S 4P renormalized

     K-points division:     npool     =      14
     Subspace diagonalization in iterative solution of the eigenvalue problem:
     a serial algorithm will be used


     G-vector sticks info
     --------------------
     sticks:   dense  smooth     PW     G-vecs:    dense   smooth      PW
     Sum         805     397    121                20199     7143    1263

     Using Slab Decomposition



     bravais-lattice index     =            4
     lattice parameter (alat)  =       6.0093  a.u.
     unit-cell volume          =     209.5066 (a.u.)^3
     number of atoms/cell      =            3
     number of atomic types    =            2
     number of electrons       =        18.00
     number of Kohn-Sham states=           13
     kinetic-energy cutoff     =      40.0000  Ry
     charge density cutoff     =     320.0000  Ry
     scf convergence threshold =      1.0E-08
     mixing beta               =       0.7000
     number of iterations used =            8  plain     mixing
     Exchange-correlation= SLA  PW   PBX  PBC
                           (   1   4   3   4   0   0   0)

     celldm(1)=   6.009329  celldm(2)=   0.000000  celldm(3)=   1.114780
     celldm(4)=   0.000000  celldm(5)=   0.000000  celldm(6)=   0.000000

     crystal axes: (cart. coord. in units of alat)
               a(1) = (   1.000000   0.000000   0.000000 )  
               a(2) = (  -0.500000   0.866025   0.000000 )  
               a(3) = (   0.000000   0.000000   1.114780 )  

     reciprocal axes: (cart. coord. in units 2 pi/alat)
               b(1) = (  1.000000  0.577350 -0.000000 )  
               b(2) = (  0.000000  1.154701  0.000000 )  
               b(3) = (  0.000000 -0.000000  0.897038 )  


     PseudoPot. # 1 for Zr read from file:
     /home/cganley2/qe-projects/common/pseudopotentials/SSSP_1.3.0_PBE_precision/Zr.pbe-spn-kjpaw_psl.1.0.0.UPF
     MD5 check sum: 83bf7718257ce689f169bc8534fef73a
     Pseudo is Projector augmented-wave + core cor, Zval = 12.0
     Generated using &quot;atomic&quot; code by A. Dal Corso  v.6.2.2
     Shape of augmentation charge: PSQ
     Using radial grid of 1225 points,  6 beta functions with: 
                l(1) =   0
                l(2) =   0
                l(3) =   1
                l(4) =   1
                l(5) =   2
                l(6) =   2
     Q(r) pseudized with 0 coefficients 


     PseudoPot. # 2 for B  read from file:
     /home/cganley2/qe-projects/common/pseudopotentials/SSSP_1.3.0_PBE_precision/B.pbe-n-kjpaw_psl.1.0.0.UPF
     MD5 check sum: 757e44352cacacece234d5873ff275d1
     Pseudo is Projector augmented-wave + core cor, Zval =  3.0
     Generated using &quot;atomic&quot; code by A. Dal Corso  v.6.3
     Shape of augmentation charge: PSQ
     Using radial grid of 1059 points,  4 beta functions with: 
                l(1) =   0
                l(2) =   0
                l(3) =   1
                l(4) =   1
     Q(r) pseudized with 0 coefficients 


     atomic species   valence    mass     pseudopotential
     Zr               12.00    91.22400     Zr( 1.00)
     B                 3.00    10.81000     B ( 1.00)

     No symmetry found



   Cartesian axes

     site n.     atom                  positions (alat units)
         1        Zr     tau(   1) = (   0.0000000   0.0000000   0.0000000  )
         2        B      tau(   2) = (   0.5000000   0.2886751   0.5573899  )
         3        B      tau(   3) = (  -0.0000000   0.5773503   0.5573899  )

     number of k points=    14  Gaussian smearing, width (Ry)=  0.0100
                       cart. coord. in units 2pi/alat
        k(    1) = (   0.0000000   0.0000000   0.0000000), wk =   0.0740741
        k(    2) = (   0.0000000   0.0000000   0.2990127), wk =   0.1481481
        k(    3) = (   0.0000000   0.3849002   0.0000000), wk =   0.1481481
        k(    4) = (   0.0000000   0.3849002   0.2990127), wk =   0.1481481
        k(    5) = (   0.0000000   0.3849002  -0.2990127), wk =   0.1481481
        k(    6) = (   0.3333333   0.1924501   0.0000000), wk =   0.1481481
        k(    7) = (   0.3333333   0.1924501   0.2990127), wk =   0.1481481
        k(    8) = (   0.3333333   0.1924501  -0.2990127), wk =   0.1481481
        k(    9) = (   0.3333333   0.5773503   0.0000000), wk =   0.1481481
        k(   10) = (   0.3333333   0.5773503   0.2990127), wk =   0.1481481
        k(   11) = (   0.3333333   0.5773503  -0.2990127), wk =   0.1481481
        k(   12) = (   0.3333333  -0.1924501   0.0000000), wk =   0.1481481
        k(   13) = (   0.3333333  -0.1924501   0.2990127), wk =   0.1481481
        k(   14) = (   0.3333333  -0.1924501  -0.2990127), wk =   0.1481481

     Dense  grid:    20199 G-vectors     FFT dimensions: (  36,  36,  40)

     Smooth grid:     7143 G-vectors     FFT dimensions: (  25,  25,  27)

     Estimated max dynamical RAM per process >      20.55 MB

     Estimated total dynamical RAM >     223.65 MB

     Check: negative core charge=   -0.000002

     Initial potential from superposition of free atoms

     starting charge      17.9973, renormalised to      18.0000
     Starting wfcs are   21 randomized atomic wfcs
     Checking if some PAW data can be deallocated... 

     total cpu time spent up to now is        1.2 secs

     per-process dynamical memory:   129.4 Mb

     Self-consistent Calculation

     iteration #  1     ecut=    40.00 Ry     beta= 0.70
     Davidson diagonalization with overlap
     ethr =  1.00E-02,  avg # of iterations =  2.0

     total cpu time spent up to now is        1.4 secs

     total energy              =    -330.22788074 Ry
     estimated scf accuracy    <       0.28338935 Ry

     iteration #  2     ecut=    40.00 Ry     beta= 0.70
     Davidson diagonalization with overlap
     ethr =  1.57E-03,  avg # of iterations =  3.0

     total cpu time spent up to now is        1.5 secs

     total energy              =    -330.28128661 Ry
     estimated scf accuracy    <       0.31988244 Ry

     iteration #  3     ecut=    40.00 Ry     beta= 0.70
     Davidson diagonalization with overlap
     ethr =  1.57E-03,  avg # of iterations =  2.0

     total cpu time spent up to now is        1.6 secs

     total energy              =    -330.35387064 Ry
     estimated scf accuracy    <       0.00161960 Ry

     iteration #  4     ecut=    40.00 Ry     beta= 0.70
     Davidson diagonalization with overlap
     ethr =  9.00E-06,  avg # of iterations =  4.2

     total cpu time spent up to now is        1.7 secs

     total energy              =    -330.35442669 Ry
     estimated scf accuracy    <       0.00064892 Ry

     iteration #  5     ecut=    40.00 Ry     beta= 0.70
     Davidson diagonalization with overlap
     ethr =  3.61E-06,  avg # of iterations =  2.2

     total cpu time spent up to now is        1.8 secs

     total energy              =    -330.35455614 Ry
     estimated scf accuracy    <       0.00000171 Ry

     iteration #  6     ecut=    40.00 Ry     beta= 0.70
     Davidson diagonalization with overlap
     ethr =  9.49E-09,  avg # of iterations =  4.1

     total cpu time spent up to now is        1.9 secs

     total energy              =    -330.35455843 Ry
     estimated scf accuracy    <       0.00000297 Ry

     iteration #  7     ecut=    40.00 Ry     beta= 0.70
     Davidson diagonalization with overlap
     ethr =  9.49E-09,  avg # of iterations =  2.0

     total cpu time spent up to now is        2.0 secs

     total energy              =    -330.35455860 Ry
     estimated scf accuracy    <       0.00000028 Ry

     iteration #  8     ecut=    40.00 Ry     beta= 0.70
     Davidson diagonalization with overlap
     ethr =  1.58E-09,  avg # of iterations =  2.9

     total cpu time spent up to now is        2.1 secs

     End of self-consistent calculation

          k = 0.0000 0.0000 0.0000 (   877 PWs)   bands (ev):

   -33.0053 -11.1698 -10.6640 -10.6640   3.0674  13.1110  13.1256  13.1256
    13.3770  19.0432  19.0432  19.8260  19.8260

          k = 0.0000 0.0000 0.2990 (   890 PWs)   bands (ev):

   -32.9920 -11.4308 -10.6458 -10.6458   4.4093   9.6690  14.1197  14.1197
    16.4864  16.4864  16.5943  17.4870  17.4871

          k = 0.0000 0.3849 0.0000 (   894 PWs)   bands (ev):

   -32.9221 -11.3560 -11.0448 -10.8198   5.0290   9.3845  12.1324  12.9030
    13.4780  18.2058  18.5125  18.6686  19.6322

          k = 0.0000 0.3849 0.2990 (   894 PWs)   bands (ev):

   -32.9093 -11.3191 -11.2655 -10.7952   5.4736   9.4024  11.8128  11.9271
    13.5224  17.5463  18.8524  20.7836  21.0073

          k = 0.0000 0.3849-0.2990 (   894 PWs)   bands (ev):

   -32.9093 -11.3191 -11.2655 -10.7952   5.4736   9.4024  11.8128  11.9271
    13.5224  17.5463  18.8524  20.7836  21.0073

          k = 0.3333 0.1925 0.0000 (   894 PWs)   bands (ev):

   -32.9221 -11.3560 -11.0448 -10.8198   5.0290   9.3845  12.1324  12.9030
    13.4780  18.2058  18.5125  18.6686  19.6322

          k = 0.3333 0.1925 0.2990 (   894 PWs)   bands (ev):

   -32.9093 -11.3191 -11.2655 -10.7952   5.4736   9.4024  11.8128  11.9271
    13.5224  17.5463  18.8524  20.7836  21.0073

          k = 0.3333 0.1925-0.2990 (   894 PWs)   bands (ev):

   -32.9093 -11.3191 -11.2655 -10.7952   5.4736   9.4024  11.8128  11.9271
    13.5224  17.5463  18.8524  20.7836  21.0073

          k = 0.3333 0.5774 0.0000 (   918 PWs)   bands (ev):

   -32.8802 -11.2995 -11.2995 -10.9814   7.9858   7.9858   8.9032  13.2817
    13.2817  17.2263  17.2263  18.8292  24.1341

          k = 0.3333 0.5774 0.2990 (   894 PWs)   bands (ev):

   -32.8673 -11.2608 -11.2608 -11.1852   7.2668   7.2668  10.2995  13.0297
    13.0297  19.5173  20.1507  20.1507  22.6920

          k = 0.3333 0.5774-0.2990 (   894 PWs)   bands (ev):

   -32.8673 -11.2608 -11.2608 -11.1852   7.2668   7.2668  10.2995  13.0297
    13.0297  19.5173  20.1507  20.1507  22.6920

          k = 0.3333-0.1925 0.0000 (   894 PWs)   bands (ev):

   -32.9221 -11.3560 -11.0448 -10.8198   5.0290   9.3845  12.1324  12.9030
    13.4780  18.2058  18.5125  18.6686  19.6322

          k = 0.3333-0.1925 0.2990 (   894 PWs)   bands (ev):

   -32.9093 -11.3191 -11.2655 -10.7952   5.4736   9.4024  11.8128  11.9271
    13.5224  17.5463  18.8524  20.7836  21.0073

          k = 0.3333-0.1925-0.2990 (   894 PWs)   bands (ev):

   -32.9093 -11.3191 -11.2655 -10.7952   5.4736   9.4024  11.8128  11.9271
    13.5224  17.5463  18.8524  20.7836  21.0073

     the Fermi energy is    16.4737 ev

!    total energy              =    -330.35455868 Ry
     total all-electron energy =     -7297.222226 Ry
     estimated scf accuracy    <          3.5E-09 Ry
     smearing contrib. (-TS)   =      -0.00101919 Ry
     internal energy E=F+TS    =    -330.35353949 Ry

     The total energy is F=E-TS. E is the sum of the following terms:
     one-electron contribution =      -2.05732185 Ry
     hartree contribution      =      12.46763006 Ry
     xc contribution           =     -24.05035659 Ry
     ewald contribution        =     -96.27913793 Ry
     one-center paw contrib.   =    -220.43435319 Ry

     convergence has been achieved in   8 iterations

     Forces acting on atoms (cartesian axes, Ry/au):

     atom    1 type  1   force =    -0.00000069   -0.00000030    0.00000051
     atom    2 type  2   force =     0.00000040   -0.00000022   -0.00000037
     atom    3 type  2   force =     0.00000030    0.00000053   -0.00000015

     Total force =     0.000001     Total SCF correction =     0.000003
     SCF correction compared to forces is large: reduce conv_thr to get better values


     Computing stress (Cartesian axis) and pressure

          total   stress  (Ry/bohr**3)                   (kbar)     P=      -26.22
  -0.00003499   0.00000000   0.00000000           -5.15        0.00        0.00
   0.00000000  -0.00003499   0.00000000            0.00       -5.15        0.00
   0.00000000   0.00000000  -0.00046465            0.00        0.00      -68.35


     Writing all to output data dir ./tmp/zrb2-40.save/ :
     XML data file, charge density, pseudopotentials, collected wavefunctions

     init_run     :      1.03s CPU      1.06s WALL (       1 calls)
     electrons    :      0.81s CPU      0.86s WALL (       1 calls)
     forces       :      0.04s CPU      0.04s WALL (       1 calls)
     stress       :      0.08s CPU      0.08s WALL (       1 calls)

     Called by init_run:
     wfcinit      :      0.07s CPU      0.07s WALL (       1 calls)
     potinit      :      0.21s CPU      0.22s WALL (       1 calls)
     hinit0       :      0.73s CPU      0.74s WALL (       1 calls)

     Called by electrons:
     c_bands      :      0.08s CPU      0.08s WALL (       8 calls)
     sum_band     :      0.08s CPU      0.08s WALL (       8 calls)
     v_of_rho     :      0.19s CPU      0.19s WALL (       9 calls)
     newd         :      0.05s CPU      0.05s WALL (       9 calls)
     PAW_pot      :      0.44s CPU      0.46s WALL (       9 calls)
     mix_rho      :      0.01s CPU      0.01s WALL (       8 calls)

     Called by c_bands:
     init_us_2    :      0.01s CPU      0.01s WALL (      18 calls)
     cegterg      :      0.07s CPU      0.07s WALL (       8 calls)

     Called by *egterg:
     cdiaghg      :      0.00s CPU      0.01s WALL (      28 calls)
     h_psi        :      0.12s CPU      0.12s WALL (      29 calls)
     s_psi        :      0.00s CPU      0.00s WALL (      29 calls)
     g_psi        :      0.00s CPU      0.00s WALL (      20 calls)

     Called by h_psi:
     h_psi:calbec :      0.00s CPU      0.00s WALL (      29 calls)
     vloc_psi     :      0.11s CPU      0.11s WALL (      29 calls)
     add_vuspsi   :      0.00s CPU      0.00s WALL (      29 calls)

     General routines
     calbec       :      0.01s CPU      0.01s WALL (      54 calls)
     fft          :      0.44s CPU      0.45s WALL (     140 calls)
     ffts         :      0.10s CPU      0.10s WALL (      17 calls)
     fftw         :      0.10s CPU      0.11s WALL (     658 calls)
     interpolate  :      0.10s CPU      0.10s WALL (       9 calls)

     Parallel routines

     PWSCF        :      2.12s CPU      2.37s WALL


   This run was terminated on:  13:49:40  10Jun2025            

=------------------------------------------------------------------------------=
   JOB DONE.
=------------------------------------------------------------------------------=
