
     Program PWSCF v.7.4 starts on 10Jun2025 at 13:49:38 

     This program is part of the open-source Quantum ESPRESSO suite
     for quantum simulation of materials; please cite
         "P. Giannozzi et al., J. Phys.:Condens. Matter 21 395502 (2009);
         "P. Giannozzi et al., J. Phys.:Condens. Matter 29 465901 (2017);
         "P. Giannozzi et al., J. Chem. Phys. 152 154105 (2020);
          URL http://www.quantum-espresso.org", 
     in publications or presentations arising from this work. More details at
     http://www.quantum-espresso.org/quote

     Parallel version (MPI & OpenMP), running on      14 processor cores
     Number of MPI processes:                14
     Threads/MPI process:                     1

     MPI processes distributed on     1 nodes
     16073 MiB available memory on the printing compute node when the environment starts

     Reading input from qe.in

     Current dimensions of program PWSCF are:
     Max number of different atomic species (ntypx) = 10
     Max number of k-points (npk) =  40000
     Max angular momentum in pseudopotentials (lmaxx) =  4
     file Zr.pbe-spn-kjpaw_psl.1.0.0.UPF: wavefunction(s)  4S 4P renormalized

     K-points division:     npool     =      14
     Subspace diagonalization in iterative solution of the eigenvalue problem:
     a serial algorithm will be used


     G-vector sticks info
     --------------------
     sticks:   dense  smooth     PW     G-vecs:    dense   smooth      PW
     Sum        1393     691    211                46851    16457    2629

     Using Slab Decomposition



     bravais-lattice index     =            4
     lattice parameter (alat)  =       6.0093  a.u.
     unit-cell volume          =     209.5066 (a.u.)^3
     number of atoms/cell      =            3
     number of atomic types    =            2
     number of electrons       =        18.00
     number of Kohn-Sham states=           13
     kinetic-energy cutoff     =      70.0000  Ry
     charge density cutoff     =     560.0000  Ry
     scf convergence threshold =      1.0E-08
     mixing beta               =       0.7000
     number of iterations used =            8  plain     mixing
     Exchange-correlation= SLA  PW   PBX  PBC
                           (   1   4   3   4   0   0   0)

     celldm(1)=   6.009329  celldm(2)=   0.000000  celldm(3)=   1.114780
     celldm(4)=   0.000000  celldm(5)=   0.000000  celldm(6)=   0.000000

     crystal axes: (cart. coord. in units of alat)
               a(1) = (   1.000000   0.000000   0.000000 )  
               a(2) = (  -0.500000   0.866025   0.000000 )  
               a(3) = (   0.000000   0.000000   1.114780 )  

     reciprocal axes: (cart. coord. in units 2 pi/alat)
               b(1) = (  1.000000  0.577350 -0.000000 )  
               b(2) = (  0.000000  1.154701  0.000000 )  
               b(3) = (  0.000000 -0.000000  0.897038 )  


     PseudoPot. # 1 for Zr read from file:
     /home/cganley2/qe-projects/common/pseudopotentials/SSSP_1.3.0_PBE_precision/Zr.pbe-spn-kjpaw_psl.1.0.0.UPF
     MD5 check sum: 83bf7718257ce689f169bc8534fef73a
     Pseudo is Projector augmented-wave + core cor, Zval = 12.0
     Generated using &quot;atomic&quot; code by A. Dal Corso  v.6.2.2
     Shape of augmentation charge: PSQ
     Using radial grid of 1225 points,  6 beta functions with: 
                l(1) =   0
                l(2) =   0
                l(3) =   1
                l(4) =   1
                l(5) =   2
                l(6) =   2
     Q(r) pseudized with 0 coefficients 


     PseudoPot. # 2 for B  read from file:
     /home/cganley2/qe-projects/common/pseudopotentials/SSSP_1.3.0_PBE_precision/B.pbe-n-kjpaw_psl.1.0.0.UPF
     MD5 check sum: 757e44352cacacece234d5873ff275d1
     Pseudo is Projector augmented-wave + core cor, Zval =  3.0
     Generated using &quot;atomic&quot; code by A. Dal Corso  v.6.3
     Shape of augmentation charge: PSQ
     Using radial grid of 1059 points,  4 beta functions with: 
                l(1) =   0
                l(2) =   0
                l(3) =   1
                l(4) =   1
     Q(r) pseudized with 0 coefficients 


     atomic species   valence    mass     pseudopotential
     Zr               12.00    91.22400     Zr( 1.00)
     B                 3.00    10.81000     B ( 1.00)

     No symmetry found



   Cartesian axes

     site n.     atom                  positions (alat units)
         1        Zr     tau(   1) = (   0.0000000   0.0000000   0.0000000  )
         2        B      tau(   2) = (   0.5000000   0.2886751   0.5573899  )
         3        B      tau(   3) = (  -0.0000000   0.5773503   0.5573899  )

     number of k points=    14  Gaussian smearing, width (Ry)=  0.0100
                       cart. coord. in units 2pi/alat
        k(    1) = (   0.0000000   0.0000000   0.0000000), wk =   0.0740741
        k(    2) = (   0.0000000   0.0000000   0.2990127), wk =   0.1481481
        k(    3) = (   0.0000000   0.3849002   0.0000000), wk =   0.1481481
        k(    4) = (   0.0000000   0.3849002   0.2990127), wk =   0.1481481
        k(    5) = (   0.0000000   0.3849002  -0.2990127), wk =   0.1481481
        k(    6) = (   0.3333333   0.1924501   0.0000000), wk =   0.1481481
        k(    7) = (   0.3333333   0.1924501   0.2990127), wk =   0.1481481
        k(    8) = (   0.3333333   0.1924501  -0.2990127), wk =   0.1481481
        k(    9) = (   0.3333333   0.5773503   0.0000000), wk =   0.1481481
        k(   10) = (   0.3333333   0.5773503   0.2990127), wk =   0.1481481
        k(   11) = (   0.3333333   0.5773503  -0.2990127), wk =   0.1481481
        k(   12) = (   0.3333333  -0.1924501   0.0000000), wk =   0.1481481
        k(   13) = (   0.3333333  -0.1924501   0.2990127), wk =   0.1481481
        k(   14) = (   0.3333333  -0.1924501  -0.2990127), wk =   0.1481481

     Dense  grid:    46851 G-vectors     FFT dimensions: (  45,  45,  54)

     Smooth grid:    16457 G-vectors     FFT dimensions: (  36,  36,  36)

     Estimated max dynamical RAM per process >      44.06 MB

     Estimated total dynamical RAM >     468.20 MB

     Initial potential from superposition of free atoms

     starting charge      17.9973, renormalised to      18.0000
     Starting wfcs are   21 randomized atomic wfcs
     Checking if some PAW data can be deallocated... 

     total cpu time spent up to now is        2.1 secs

     per-process dynamical memory:   146.1 Mb

     Self-consistent Calculation

     iteration #  1     ecut=    70.00 Ry     beta= 0.70
     Davidson diagonalization with overlap
     ethr =  1.00E-02,  avg # of iterations =  2.0

     total cpu time spent up to now is        2.3 secs

     total energy              =    -330.23205295 Ry
     estimated scf accuracy    <       0.28231589 Ry

     iteration #  2     ecut=    70.00 Ry     beta= 0.70
     Davidson diagonalization with overlap
     ethr =  1.57E-03,  avg # of iterations =  3.0

     total cpu time spent up to now is        2.6 secs

     total energy              =    -330.28508069 Ry
     estimated scf accuracy    <       0.31794228 Ry

     iteration #  3     ecut=    70.00 Ry     beta= 0.70
     Davidson diagonalization with overlap
     ethr =  1.57E-03,  avg # of iterations =  2.0

     total cpu time spent up to now is        2.8 secs

     total energy              =    -330.35728098 Ry
     estimated scf accuracy    <       0.00161962 Ry

     iteration #  4     ecut=    70.00 Ry     beta= 0.70
     Davidson diagonalization with overlap
     ethr =  9.00E-06,  avg # of iterations =  4.3

     total cpu time spent up to now is        3.1 secs

     total energy              =    -330.35785025 Ry
     estimated scf accuracy    <       0.00066614 Ry

     iteration #  5     ecut=    70.00 Ry     beta= 0.70
     Davidson diagonalization with overlap
     ethr =  3.70E-06,  avg # of iterations =  2.0

     total cpu time spent up to now is        3.3 secs

     total energy              =    -330.35797273 Ry
     estimated scf accuracy    <       0.00000520 Ry

     iteration #  6     ecut=    70.00 Ry     beta= 0.70
     Davidson diagonalization with overlap
     ethr =  2.89E-08,  avg # of iterations =  4.0

     total cpu time spent up to now is        3.6 secs

     total energy              =    -330.35797674 Ry
     estimated scf accuracy    <       0.00000365 Ry

     iteration #  7     ecut=    70.00 Ry     beta= 0.70
     Davidson diagonalization with overlap
     ethr =  2.03E-08,  avg # of iterations =  1.8

     total cpu time spent up to now is        3.8 secs

     total energy              =    -330.35797687 Ry
     estimated scf accuracy    <       0.00000043 Ry

     iteration #  8     ecut=    70.00 Ry     beta= 0.70
     Davidson diagonalization with overlap
     ethr =  2.39E-09,  avg # of iterations =  2.7

     total cpu time spent up to now is        4.1 secs

     End of self-consistent calculation

          k = 0.0000 0.0000 0.0000 (  2021 PWs)   bands (ev):

   -33.0086 -11.1696 -10.6638 -10.6638   3.0655  13.1087  13.1231  13.1231
    13.3753  19.0388  19.0388  19.8223  19.8224

          k = 0.0000 0.0000 0.2990 (  2040 PWs)   bands (ev):

   -32.9950 -11.4306 -10.6455 -10.6455   4.4071   9.6673  14.1175  14.1175
    16.4837  16.4837  16.5907  17.4837  17.4838

          k = 0.0000 0.3849 0.0000 (  2060 PWs)   bands (ev):

   -32.9250 -11.3557 -11.0446 -10.8197   5.0269   9.3822  12.1303  12.9011
    13.4754  18.2018  18.5100  18.6666  19.6290

          k = 0.0000 0.3849 0.2990 (  2070 PWs)   bands (ev):

   -32.9123 -11.3189 -11.2654 -10.7949   5.4715   9.4002  11.8111  11.9249
    13.5201  17.5433  18.8493  20.7794  21.0038

          k = 0.0000 0.3849-0.2990 (  2070 PWs)   bands (ev):

   -32.9123 -11.3189 -11.2654 -10.7949   5.4715   9.4002  11.8111  11.9249
    13.5201  17.5433  18.8493  20.7794  21.0038

          k = 0.3333 0.1925 0.0000 (  2060 PWs)   bands (ev):

   -32.9250 -11.3557 -11.0446 -10.8197   5.0269   9.3822  12.1303  12.9011
    13.4754  18.2018  18.5100  18.6666  19.6290

          k = 0.3333 0.1925 0.2990 (  2070 PWs)   bands (ev):

   -32.9123 -11.3189 -11.2654 -10.7949   5.4715   9.4002  11.8111  11.9249
    13.5201  17.5433  18.8493  20.7794  21.0038

          k = 0.3333 0.1925-0.2990 (  2070 PWs)   bands (ev):

   -32.9123 -11.3189 -11.2654 -10.7949   5.4715   9.4002  11.8111  11.9249
    13.5201  17.5433  18.8493  20.7794  21.0038

          k = 0.3333 0.5774 0.0000 (  2094 PWs)   bands (ev):

   -32.8827 -11.2992 -11.2992 -10.9811   7.9835   7.9835   8.9014  13.2797
    13.2798  17.2241  17.2242  18.8268  24.1306

          k = 0.3333 0.5774 0.2990 (  2079 PWs)   bands (ev):

   -32.8703 -11.2606 -11.2606 -11.1852   7.2644   7.2644  10.2978  13.0279
    13.0279  19.5138  20.1465  20.1465  22.6873

          k = 0.3333 0.5774-0.2990 (  2079 PWs)   bands (ev):

   -32.8703 -11.2606 -11.2606 -11.1852   7.2644   7.2644  10.2978  13.0279
    13.0279  19.5138  20.1465  20.1465  22.6873

          k = 0.3333-0.1925 0.0000 (  2060 PWs)   bands (ev):

   -32.9250 -11.3557 -11.0446 -10.8197   5.0269   9.3822  12.1303  12.9011
    13.4754  18.2018  18.5100  18.6666  19.6290

          k = 0.3333-0.1925 0.2990 (  2070 PWs)   bands (ev):

   -32.9123 -11.3189 -11.2654 -10.7949   5.4715   9.4002  11.8111  11.9249
    13.5201  17.5433  18.8493  20.7794  21.0038

          k = 0.3333-0.1925-0.2990 (  2070 PWs)   bands (ev):

   -32.9123 -11.3189 -11.2654 -10.7949   5.4715   9.4002  11.8111  11.9249
    13.5201  17.5433  18.8493  20.7794  21.0038

     the Fermi energy is    16.4708 ev

!    total energy              =    -330.35797700 Ry
     total all-electron energy =     -7297.225645 Ry
     estimated scf accuracy    <          5.9E-09 Ry
     smearing contrib. (-TS)   =      -0.00102070 Ry
     internal energy E=F+TS    =    -330.35695630 Ry

     The total energy is F=E-TS. E is the sum of the following terms:
     one-electron contribution =      -2.06171502 Ry
     hartree contribution      =      12.46853023 Ry
     xc contribution           =     -24.04929274 Ry
     ewald contribution        =     -96.27913793 Ry
     one-center paw contrib.   =    -220.43534083 Ry

     convergence has been achieved in   8 iterations

     Forces acting on atoms (cartesian axes, Ry/au):

     atom    1 type  1   force =    -0.00000023    0.00000038   -0.00000132
     atom    2 type  2   force =    -0.00000063    0.00000008    0.00000060
     atom    3 type  2   force =     0.00000086   -0.00000047    0.00000072

     Total force =     0.000002     Total SCF correction =     0.000007
     SCF correction compared to forces is large: reduce conv_thr to get better values


     Computing stress (Cartesian axis) and pressure

          total   stress  (Ry/bohr**3)                   (kbar)     P=      -19.72
   0.00000844   0.00000001   0.00000000            1.24        0.00        0.00
   0.00000001   0.00000846  -0.00000000            0.00        1.24       -0.00
   0.00000000  -0.00000000  -0.00041912            0.00       -0.00      -61.65


     Writing all to output data dir ./tmp/zrb2-70.save/ :
     XML data file, charge density, pseudopotentials, collected wavefunctions

     init_run     :      1.80s CPU      1.83s WALL (       1 calls)
     electrons    :      1.94s CPU      2.03s WALL (       1 calls)
     forces       :      0.14s CPU      0.14s WALL (       1 calls)
     stress       :      0.27s CPU      0.27s WALL (       1 calls)

     Called by init_run:
     wfcinit      :      0.28s CPU      0.29s WALL (       1 calls)
     potinit      :      0.56s CPU      0.57s WALL (       1 calls)
     hinit0       :      0.91s CPU      0.92s WALL (       1 calls)

     Called by electrons:
     c_bands      :      0.28s CPU      0.28s WALL (       8 calls)
     sum_band     :      0.31s CPU      0.32s WALL (       8 calls)
     v_of_rho     :      0.64s CPU      0.66s WALL (       9 calls)
     newd         :      0.17s CPU      0.18s WALL (       9 calls)
     PAW_pot      :      0.56s CPU      0.57s WALL (       9 calls)
     mix_rho      :      0.03s CPU      0.03s WALL (       8 calls)

     Called by c_bands:
     init_us_2    :      0.02s CPU      0.02s WALL (      18 calls)
     cegterg      :      0.21s CPU      0.22s WALL (       8 calls)

     Called by *egterg:
     cdiaghg      :      0.01s CPU      0.01s WALL (      24 calls)
     h_psi        :      0.45s CPU      0.46s WALL (      25 calls)
     s_psi        :      0.01s CPU      0.01s WALL (      25 calls)
     g_psi        :      0.00s CPU      0.00s WALL (      16 calls)

     Called by h_psi:
     h_psi:calbec :      0.01s CPU      0.01s WALL (      25 calls)
     vloc_psi     :      0.43s CPU      0.44s WALL (      25 calls)
     add_vuspsi   :      0.01s CPU      0.01s WALL (      25 calls)

     General routines
     calbec       :      0.02s CPU      0.02s WALL (      50 calls)
     fft          :      0.45s CPU      0.45s WALL (     140 calls)
     ffts         :      0.30s CPU      0.30s WALL (      17 calls)
     fftw         :      0.41s CPU      0.42s WALL (     636 calls)
     interpolate  :      0.32s CPU      0.32s WALL (       9 calls)

     Parallel routines

     PWSCF        :      4.39s CPU      4.70s WALL


   This run was terminated on:  13:49:43  10Jun2025            

=------------------------------------------------------------------------------=
   JOB DONE.
=------------------------------------------------------------------------------=
