
     Program PWSCF v.7.4 starts on 10Jun2025 at 13:49:39 

     This program is part of the open-source Quantum ESPRESSO suite
     for quantum simulation of materials; please cite
         "P. Giannozzi et al., J. Phys.:Condens. Matter 21 395502 (2009);
         "P. Giannozzi et al., J. Phys.:Condens. Matter 29 465901 (2017);
         "P. Giannozzi et al., J. Chem. Phys. 152 154105 (2020);
          URL http://www.quantum-espresso.org", 
     in publications or presentations arising from this work. More details at
     http://www.quantum-espresso.org/quote

     Parallel version (MPI & OpenMP), running on      14 processor cores
     Number of MPI processes:                14
     Threads/MPI process:                     1

     MPI processes distributed on     1 nodes
     120672 MiB available memory on the printing compute node when the environment starts

     Reading input from qe.in

     Current dimensions of program PWSCF are:
     Max number of different atomic species (ntypx) = 10
     Max number of k-points (npk) =  40000
     Max angular momentum in pseudopotentials (lmaxx) =  4
     file Zr.pbe-spn-kjpaw_psl.1.0.0.UPF: wavefunction(s)  4S 4P renormalized

     K-points division:     npool     =      14
     Subspace diagonalization in iterative solution of the eigenvalue problem:
     a serial algorithm will be used


     G-vector sticks info
     --------------------
     sticks:   dense  smooth     PW     G-vecs:    dense   smooth      PW
     Sum        1981    1003    295                80041    28345    4445

     Using Slab Decomposition



     bravais-lattice index     =            4
     lattice parameter (alat)  =       6.0093  a.u.
     unit-cell volume          =     209.5066 (a.u.)^3
     number of atoms/cell      =            3
     number of atomic types    =            2
     number of electrons       =        18.00
     number of Kohn-Sham states=           13
     kinetic-energy cutoff     =     100.0000  Ry
     charge density cutoff     =     800.0000  Ry
     scf convergence threshold =      1.0E-08
     mixing beta               =       0.7000
     number of iterations used =            8  plain     mixing
     Exchange-correlation= SLA  PW   PBX  PBC
                           (   1   4   3   4   0   0   0)

     celldm(1)=   6.009329  celldm(2)=   0.000000  celldm(3)=   1.114780
     celldm(4)=   0.000000  celldm(5)=   0.000000  celldm(6)=   0.000000

     crystal axes: (cart. coord. in units of alat)
               a(1) = (   1.000000   0.000000   0.000000 )  
               a(2) = (  -0.500000   0.866025   0.000000 )  
               a(3) = (   0.000000   0.000000   1.114780 )  

     reciprocal axes: (cart. coord. in units 2 pi/alat)
               b(1) = (  1.000000  0.577350 -0.000000 )  
               b(2) = (  0.000000  1.154701  0.000000 )  
               b(3) = (  0.000000 -0.000000  0.897038 )  


     PseudoPot. # 1 for Zr read from file:
     /home/cganley2/qe-projects/common/pseudopotentials/SSSP_1.3.0_PBE_precision/Zr.pbe-spn-kjpaw_psl.1.0.0.UPF
     MD5 check sum: 83bf7718257ce689f169bc8534fef73a
     Pseudo is Projector augmented-wave + core cor, Zval = 12.0
     Generated using &quot;atomic&quot; code by A. Dal Corso  v.6.2.2
     Shape of augmentation charge: PSQ
     Using radial grid of 1225 points,  6 beta functions with: 
                l(1) =   0
                l(2) =   0
                l(3) =   1
                l(4) =   1
                l(5) =   2
                l(6) =   2
     Q(r) pseudized with 0 coefficients 


     PseudoPot. # 2 for B  read from file:
     /home/cganley2/qe-projects/common/pseudopotentials/SSSP_1.3.0_PBE_precision/B.pbe-n-kjpaw_psl.1.0.0.UPF
     MD5 check sum: 757e44352cacacece234d5873ff275d1
     Pseudo is Projector augmented-wave + core cor, Zval =  3.0
     Generated using &quot;atomic&quot; code by A. Dal Corso  v.6.3
     Shape of augmentation charge: PSQ
     Using radial grid of 1059 points,  4 beta functions with: 
                l(1) =   0
                l(2) =   0
                l(3) =   1
                l(4) =   1
     Q(r) pseudized with 0 coefficients 


     atomic species   valence    mass     pseudopotential
     Zr               12.00    91.22400     Zr( 1.00)
     B                 3.00    10.81000     B ( 1.00)

     No symmetry found



   Cartesian axes

     site n.     atom                  positions (alat units)
         1        Zr     tau(   1) = (   0.0000000   0.0000000   0.0000000  )
         2        B      tau(   2) = (   0.5000000   0.2886751   0.5573899  )
         3        B      tau(   3) = (  -0.0000000   0.5773503   0.5573899  )

     number of k points=    14  Gaussian smearing, width (Ry)=  0.0100
                       cart. coord. in units 2pi/alat
        k(    1) = (   0.0000000   0.0000000   0.0000000), wk =   0.0740741
        k(    2) = (   0.0000000   0.0000000   0.2990127), wk =   0.1481481
        k(    3) = (   0.0000000   0.3849002   0.0000000), wk =   0.1481481
        k(    4) = (   0.0000000   0.3849002   0.2990127), wk =   0.1481481
        k(    5) = (   0.0000000   0.3849002  -0.2990127), wk =   0.1481481
        k(    6) = (   0.3333333   0.1924501   0.0000000), wk =   0.1481481
        k(    7) = (   0.3333333   0.1924501   0.2990127), wk =   0.1481481
        k(    8) = (   0.3333333   0.1924501  -0.2990127), wk =   0.1481481
        k(    9) = (   0.3333333   0.5773503   0.0000000), wk =   0.1481481
        k(   10) = (   0.3333333   0.5773503   0.2990127), wk =   0.1481481
        k(   11) = (   0.3333333   0.5773503  -0.2990127), wk =   0.1481481
        k(   12) = (   0.3333333  -0.1924501   0.0000000), wk =   0.1481481
        k(   13) = (   0.3333333  -0.1924501   0.2990127), wk =   0.1481481
        k(   14) = (   0.3333333  -0.1924501  -0.2990127), wk =   0.1481481

     Dense  grid:    80041 G-vectors     FFT dimensions: (  60,  60,  64)

     Smooth grid:    28345 G-vectors     FFT dimensions: (  40,  40,  45)

     Estimated max dynamical RAM per process >      76.33 MB

     Estimated total dynamical RAM >     814.52 MB

     Initial potential from superposition of free atoms

     starting charge      17.9973, renormalised to      18.0000
     Starting wfcs are   21 randomized atomic wfcs
     Checking if some PAW data can be deallocated... 

     total cpu time spent up to now is        2.4 secs

     per-process dynamical memory:   176.7 Mb

     Self-consistent Calculation

     iteration #  1     ecut=   100.00 Ry     beta= 0.70
     Davidson diagonalization with overlap
     ethr =  1.00E-02,  avg # of iterations =  2.0

     total cpu time spent up to now is        2.7 secs

     total energy              =    -330.23305506 Ry
     estimated scf accuracy    <       0.28161745 Ry

     iteration #  2     ecut=   100.00 Ry     beta= 0.70
     Davidson diagonalization with overlap
     ethr =  1.56E-03,  avg # of iterations =  3.0

     total cpu time spent up to now is        3.1 secs

     total energy              =    -330.28593243 Ry
     estimated scf accuracy    <       0.31587932 Ry

     iteration #  3     ecut=   100.00 Ry     beta= 0.70
     Davidson diagonalization with overlap
     ethr =  1.56E-03,  avg # of iterations =  2.0

     total cpu time spent up to now is        3.4 secs

     total energy              =    -330.35775010 Ry
     estimated scf accuracy    <       0.00162987 Ry

     iteration #  4     ecut=   100.00 Ry     beta= 0.70
     Davidson diagonalization with overlap
     ethr =  9.05E-06,  avg # of iterations =  4.2

     total cpu time spent up to now is        3.8 secs

     total energy              =    -330.35831563 Ry
     estimated scf accuracy    <       0.00065111 Ry

     iteration #  5     ecut=   100.00 Ry     beta= 0.70
     Davidson diagonalization with overlap
     ethr =  3.62E-06,  avg # of iterations =  2.0

     total cpu time spent up to now is        4.2 secs

     total energy              =    -330.35844419 Ry
     estimated scf accuracy    <       0.00000185 Ry

     iteration #  6     ecut=   100.00 Ry     beta= 0.70
     Davidson diagonalization with overlap
     ethr =  1.03E-08,  avg # of iterations =  4.1

     total cpu time spent up to now is        4.5 secs

     total energy              =    -330.35844666 Ry
     estimated scf accuracy    <       0.00000301 Ry

     iteration #  7     ecut=   100.00 Ry     beta= 0.70
     Davidson diagonalization with overlap
     ethr =  1.03E-08,  avg # of iterations =  2.0

     total cpu time spent up to now is        4.9 secs

     total energy              =    -330.35844688 Ry
     estimated scf accuracy    <       0.00000025 Ry

     iteration #  8     ecut=   100.00 Ry     beta= 0.70
     Davidson diagonalization with overlap
     ethr =  1.36E-09,  avg # of iterations =  2.9

     total cpu time spent up to now is        5.2 secs

     End of self-consistent calculation

          k = 0.0000 0.0000 0.0000 (  3585 PWs)   bands (ev):

   -33.0102 -11.1699 -10.6641 -10.6640   3.0653  13.1084  13.1228  13.1228
    13.3751  19.0383  19.0383  19.8218  19.8221

          k = 0.0000 0.0000 0.2990 (  3561 PWs)   bands (ev):

   -32.9966 -11.4308 -10.6458 -10.6458   4.4069   9.6671  14.1172  14.1172
    16.4834  16.4834  16.5903  17.4833  17.4833

          k = 0.0000 0.3849 0.0000 (  3544 PWs)   bands (ev):

   -32.9266 -11.3559 -11.0448 -10.8199   5.0267   9.3820  12.1301  12.9009
    13.4751  18.2014  18.5097  18.6664  19.6286

          k = 0.0000 0.3849 0.2990 (  3531 PWs)   bands (ev):

   -32.9138 -11.3191 -11.2656 -10.7951   5.4713   9.4000  11.8108  11.9247
    13.5199  17.5430  18.8489  20.7791  21.0033

          k = 0.0000 0.3849-0.2990 (  3531 PWs)   bands (ev):

   -32.9138 -11.3191 -11.2656 -10.7951   5.4713   9.4000  11.8108  11.9247
    13.5199  17.5430  18.8489  20.7791  21.0033

          k = 0.3333 0.1925 0.0000 (  3544 PWs)   bands (ev):

   -32.9266 -11.3559 -11.0448 -10.8199   5.0267   9.3820  12.1301  12.9009
    13.4751  18.2014  18.5097  18.6664  19.6286

          k = 0.3333 0.1925 0.2990 (  3531 PWs)   bands (ev):

   -32.9138 -11.3191 -11.2656 -10.7951   5.4713   9.4000  11.8108  11.9247
    13.5199  17.5430  18.8489  20.7791  21.0033

          k = 0.3333 0.1925-0.2990 (  3531 PWs)   bands (ev):

   -32.9138 -11.3191 -11.2656 -10.7951   5.4713   9.4000  11.8108  11.9247
    13.5199  17.5430  18.8489  20.7791  21.0033

          k = 0.3333 0.5774 0.0000 (  3516 PWs)   bands (ev):

   -32.8842 -11.2994 -11.2994 -10.9813   7.9833   7.9834   8.9012  13.2795
    13.2796  17.2239  17.2239  18.8265  24.1302

          k = 0.3333 0.5774 0.2990 (  3516 PWs)   bands (ev):

   -32.8718 -11.2608 -11.2608 -11.1854   7.2642   7.2642  10.2975  13.0277
    13.0277  19.5134  20.1461  20.1461  22.6870

          k = 0.3333 0.5774-0.2990 (  3516 PWs)   bands (ev):

   -32.8718 -11.2608 -11.2608 -11.1854   7.2642   7.2642  10.2975  13.0277
    13.0277  19.5134  20.1461  20.1461  22.6870

          k = 0.3333-0.1925 0.0000 (  3544 PWs)   bands (ev):

   -32.9266 -11.3559 -11.0448 -10.8199   5.0267   9.3820  12.1301  12.9009
    13.4751  18.2014  18.5097  18.6664  19.6286

          k = 0.3333-0.1925 0.2990 (  3531 PWs)   bands (ev):

   -32.9138 -11.3191 -11.2656 -10.7951   5.4713   9.4000  11.8108  11.9247
    13.5199  17.5430  18.8489  20.7791  21.0033

          k = 0.3333-0.1925-0.2990 (  3531 PWs)   bands (ev):

   -32.9138 -11.3191 -11.2656 -10.7951   5.4713   9.4000  11.8108  11.9247
    13.5199  17.5430  18.8489  20.7791  21.0033

     the Fermi energy is    16.4705 ev

!    total energy              =    -330.35844695 Ry
     total all-electron energy =     -7297.226115 Ry
     estimated scf accuracy    <          3.7E-09 Ry
     smearing contrib. (-TS)   =      -0.00102086 Ry
     internal energy E=F+TS    =    -330.35742609 Ry

     The total energy is F=E-TS. E is the sum of the following terms:
     one-electron contribution =      -2.06260139 Ry
     hartree contribution      =      12.46856744 Ry
     xc contribution           =     -24.04899555 Ry
     ewald contribution        =     -96.27913793 Ry
     one-center paw contrib.   =    -220.43525866 Ry

     convergence has been achieved in   8 iterations

     Forces acting on atoms (cartesian axes, Ry/au):

     atom    1 type  1   force =    -0.00000013   -0.00000005   -0.00000076
     atom    2 type  2   force =    -0.00000035   -0.00000009    0.00000022
     atom    3 type  2   force =     0.00000048    0.00000015    0.00000054

     Total force =     0.000001     Total SCF correction =     0.000004
     SCF correction compared to forces is large: reduce conv_thr to get better values


     Computing stress (Cartesian axis) and pressure

          total   stress  (Ry/bohr**3)                   (kbar)     P=      -18.81
   0.00001469  -0.00000001  -0.00000000            2.16       -0.00       -0.00
  -0.00000001   0.00001474   0.00000000           -0.00        2.17        0.00
  -0.00000000   0.00000000  -0.00041300           -0.00        0.00      -60.75


     Writing all to output data dir ./tmp/zrb2-100.save/ :
     XML data file, charge density, pseudopotentials, collected wavefunctions

     init_run     :      2.03s CPU      2.12s WALL (       1 calls)
     electrons    :      2.80s CPU      2.91s WALL (       1 calls)
     forces       :      0.15s CPU      0.16s WALL (       1 calls)
     stress       :      0.46s CPU      0.47s WALL (       1 calls)

     Called by init_run:
     wfcinit      :      0.24s CPU      0.28s WALL (       1 calls)
     potinit      :      0.61s CPU      0.63s WALL (       1 calls)
     hinit0       :      1.13s CPU      1.15s WALL (       1 calls)

     Called by electrons:
     c_bands      :      0.49s CPU      0.50s WALL (       8 calls)
     sum_band     :      0.42s CPU      0.44s WALL (       8 calls)
     v_of_rho     :      0.71s CPU      0.73s WALL (       9 calls)
     newd         :      0.29s CPU      0.30s WALL (       9 calls)
     PAW_pot      :      0.98s CPU      1.00s WALL (       9 calls)
     mix_rho      :      0.04s CPU      0.04s WALL (       8 calls)

     Called by c_bands:
     init_us_2    :      0.02s CPU      0.02s WALL (      18 calls)
     cegterg      :      0.29s CPU      0.30s WALL (       8 calls)

     Called by *egterg:
     cdiaghg      :      0.00s CPU      0.03s WALL (      25 calls)
     h_psi        :      0.47s CPU      0.48s WALL (      26 calls)
     s_psi        :      0.01s CPU      0.01s WALL (      26 calls)
     g_psi        :      0.00s CPU      0.00s WALL (      17 calls)

     Called by h_psi:
     h_psi:calbec :      0.01s CPU      0.02s WALL (      26 calls)
     vloc_psi     :      0.44s CPU      0.45s WALL (      26 calls)
     add_vuspsi   :      0.01s CPU      0.01s WALL (      26 calls)

     General routines
     calbec       :      0.03s CPU      0.03s WALL (      51 calls)
     fft          :      0.78s CPU      0.79s WALL (     140 calls)
     ffts         :      0.33s CPU      0.33s WALL (      17 calls)
     fftw         :      0.42s CPU      0.43s WALL (     644 calls)
     interpolate  :      0.35s CPU      0.35s WALL (       9 calls)

     Parallel routines

     PWSCF        :      5.60s CPU      6.11s WALL


   This run was terminated on:  13:49:45  10Jun2025            

=------------------------------------------------------------------------------=
   JOB DONE.
=------------------------------------------------------------------------------=
