
     Program PWSCF v.7.4 starts on 10Jun2025 at 13:49:38 

     This program is part of the open-source Quantum ESPRESSO suite
     for quantum simulation of materials; please cite
         "P. Giannozzi et al., J. Phys.:Condens. Matter 21 395502 (2009);
         "P. Giannozzi et al., J. Phys.:Condens. Matter 29 465901 (2017);
         "P. Giannozzi et al., J. Chem. Phys. 152 154105 (2020);
          URL http://www.quantum-espresso.org", 
     in publications or presentations arising from this work. More details at
     http://www.quantum-espresso.org/quote

     Parallel version (MPI & OpenMP), running on      14 processor cores
     Number of MPI processes:                14
     Threads/MPI process:                     1

     MPI processes distributed on     1 nodes
     1974 MiB available memory on the printing compute node when the environment starts

     Reading input from qe.in

     Current dimensions of program PWSCF are:
     Max number of different atomic species (ntypx) = 10
     Max number of k-points (npk) =  40000
     Max angular momentum in pseudopotentials (lmaxx) =  4
     file Zr.pbe-spn-kjpaw_psl.1.0.0.UPF: wavefunction(s)  4S 4P renormalized

     K-points division:     npool     =      14
     Subspace diagonalization in iterative solution of the eigenvalue problem:
     a serial algorithm will be used


     G-vector sticks info
     --------------------
     sticks:   dense  smooth     PW     G-vecs:    dense   smooth      PW
     Sum        1189     595    187                37163    13155    2173

     Using Slab Decomposition



     bravais-lattice index     =            4
     lattice parameter (alat)  =       6.0093  a.u.
     unit-cell volume          =     209.5066 (a.u.)^3
     number of atoms/cell      =            3
     number of atomic types    =            2
     number of electrons       =        18.00
     number of Kohn-Sham states=           13
     kinetic-energy cutoff     =      60.0000  Ry
     charge density cutoff     =     480.0000  Ry
     scf convergence threshold =      1.0E-08
     mixing beta               =       0.7000
     number of iterations used =            8  plain     mixing
     Exchange-correlation= SLA  PW   PBX  PBC
                           (   1   4   3   4   0   0   0)

     celldm(1)=   6.009329  celldm(2)=   0.000000  celldm(3)=   1.114780
     celldm(4)=   0.000000  celldm(5)=   0.000000  celldm(6)=   0.000000

     crystal axes: (cart. coord. in units of alat)
               a(1) = (   1.000000   0.000000   0.000000 )  
               a(2) = (  -0.500000   0.866025   0.000000 )  
               a(3) = (   0.000000   0.000000   1.114780 )  

     reciprocal axes: (cart. coord. in units 2 pi/alat)
               b(1) = (  1.000000  0.577350 -0.000000 )  
               b(2) = (  0.000000  1.154701  0.000000 )  
               b(3) = (  0.000000 -0.000000  0.897038 )  


     PseudoPot. # 1 for Zr read from file:
     /home/cganley2/qe-projects/common/pseudopotentials/SSSP_1.3.0_PBE_precision/Zr.pbe-spn-kjpaw_psl.1.0.0.UPF
     MD5 check sum: 83bf7718257ce689f169bc8534fef73a
     Pseudo is Projector augmented-wave + core cor, Zval = 12.0
     Generated using &quot;atomic&quot; code by A. Dal Corso  v.6.2.2
     Shape of augmentation charge: PSQ
     Using radial grid of 1225 points,  6 beta functions with: 
                l(1) =   0
                l(2) =   0
                l(3) =   1
                l(4) =   1
                l(5) =   2
                l(6) =   2
     Q(r) pseudized with 0 coefficients 


     PseudoPot. # 2 for B  read from file:
     /home/cganley2/qe-projects/common/pseudopotentials/SSSP_1.3.0_PBE_precision/B.pbe-n-kjpaw_psl.1.0.0.UPF
     MD5 check sum: 757e44352cacacece234d5873ff275d1
     Pseudo is Projector augmented-wave + core cor, Zval =  3.0
     Generated using &quot;atomic&quot; code by A. Dal Corso  v.6.3
     Shape of augmentation charge: PSQ
     Using radial grid of 1059 points,  4 beta functions with: 
                l(1) =   0
                l(2) =   0
                l(3) =   1
                l(4) =   1
     Q(r) pseudized with 0 coefficients 


     atomic species   valence    mass     pseudopotential
     Zr               12.00    91.22400     Zr( 1.00)
     B                 3.00    10.81000     B ( 1.00)

     No symmetry found



   Cartesian axes

     site n.     atom                  positions (alat units)
         1        Zr     tau(   1) = (   0.0000000   0.0000000   0.0000000  )
         2        B      tau(   2) = (   0.5000000   0.2886751   0.5573899  )
         3        B      tau(   3) = (  -0.0000000   0.5773503   0.5573899  )

     number of k points=    14  Gaussian smearing, width (Ry)=  0.0100
                       cart. coord. in units 2pi/alat
        k(    1) = (   0.0000000   0.0000000   0.0000000), wk =   0.0740741
        k(    2) = (   0.0000000   0.0000000   0.2990127), wk =   0.1481481
        k(    3) = (   0.0000000   0.3849002   0.0000000), wk =   0.1481481
        k(    4) = (   0.0000000   0.3849002   0.2990127), wk =   0.1481481
        k(    5) = (   0.0000000   0.3849002  -0.2990127), wk =   0.1481481
        k(    6) = (   0.3333333   0.1924501   0.0000000), wk =   0.1481481
        k(    7) = (   0.3333333   0.1924501   0.2990127), wk =   0.1481481
        k(    8) = (   0.3333333   0.1924501  -0.2990127), wk =   0.1481481
        k(    9) = (   0.3333333   0.5773503   0.0000000), wk =   0.1481481
        k(   10) = (   0.3333333   0.5773503   0.2990127), wk =   0.1481481
        k(   11) = (   0.3333333   0.5773503  -0.2990127), wk =   0.1481481
        k(   12) = (   0.3333333  -0.1924501   0.0000000), wk =   0.1481481
        k(   13) = (   0.3333333  -0.1924501   0.2990127), wk =   0.1481481
        k(   14) = (   0.3333333  -0.1924501  -0.2990127), wk =   0.1481481

     Dense  grid:    37163 G-vectors     FFT dimensions: (  45,  45,  48)

     Smooth grid:    13155 G-vectors     FFT dimensions: (  30,  30,  36)

     Estimated max dynamical RAM per process >      36.17 MB

     Estimated total dynamical RAM >     388.50 MB

     Initial potential from superposition of free atoms

     starting charge      17.9973, renormalised to      18.0000
     Starting wfcs are   21 randomized atomic wfcs
     Checking if some PAW data can be deallocated... 

     total cpu time spent up to now is        2.0 secs

     per-process dynamical memory:   141.2 Mb

     Self-consistent Calculation

     iteration #  1     ecut=    60.00 Ry     beta= 0.70
     Davidson diagonalization with overlap
     ethr =  1.00E-02,  avg # of iterations =  2.0

     total cpu time spent up to now is        2.2 secs

     total energy              =    -330.23112565 Ry
     estimated scf accuracy    <       0.28255612 Ry

     iteration #  2     ecut=    60.00 Ry     beta= 0.70
     Davidson diagonalization with overlap
     ethr =  1.57E-03,  avg # of iterations =  3.0

     total cpu time spent up to now is        2.5 secs

     total energy              =    -330.28423372 Ry
     estimated scf accuracy    <       0.31864692 Ry

     iteration #  3     ecut=    60.00 Ry     beta= 0.70
     Davidson diagonalization with overlap
     ethr =  1.57E-03,  avg # of iterations =  2.0

     total cpu time spent up to now is        2.7 secs

     total energy              =    -330.35658841 Ry
     estimated scf accuracy    <       0.00163296 Ry

     iteration #  4     ecut=    60.00 Ry     beta= 0.70
     Davidson diagonalization with overlap
     ethr =  9.07E-06,  avg # of iterations =  4.3

     total cpu time spent up to now is        2.9 secs

     total energy              =    -330.35714995 Ry
     estimated scf accuracy    <       0.00065083 Ry

     iteration #  5     ecut=    60.00 Ry     beta= 0.70
     Davidson diagonalization with overlap
     ethr =  3.62E-06,  avg # of iterations =  2.0

     total cpu time spent up to now is        3.2 secs

     total energy              =    -330.35727128 Ry
     estimated scf accuracy    <       0.00000481 Ry

     iteration #  6     ecut=    60.00 Ry     beta= 0.70
     Davidson diagonalization with overlap
     ethr =  2.67E-08,  avg # of iterations =  4.0

     total cpu time spent up to now is        3.4 secs

     total energy              =    -330.35727498 Ry
     estimated scf accuracy    <       0.00000357 Ry

     iteration #  7     ecut=    60.00 Ry     beta= 0.70
     Davidson diagonalization with overlap
     ethr =  1.99E-08,  avg # of iterations =  1.8

     total cpu time spent up to now is        3.6 secs

     total energy              =    -330.35727511 Ry
     estimated scf accuracy    <       0.00000042 Ry

     iteration #  8     ecut=    60.00 Ry     beta= 0.70
     Davidson diagonalization with overlap
     ethr =  2.32E-09,  avg # of iterations =  2.7

     total cpu time spent up to now is        3.8 secs

     End of self-consistent calculation

          k = 0.0000 0.0000 0.0000 (  1631 PWs)   bands (ev):

   -33.0083 -11.1690 -10.6632 -10.6632   3.0656  13.1093  13.1236  13.1236
    13.3760  19.0397  19.0398  19.8232  19.8233

          k = 0.0000 0.0000 0.2990 (  1666 PWs)   bands (ev):

   -32.9946 -11.4301 -10.6451 -10.6451   4.4073   9.6677  14.1180  14.1180
    16.4844  16.4844  16.5914  17.4844  17.4844

          k = 0.0000 0.3849 0.0000 (  1653 PWs)   bands (ev):

   -32.9246 -11.3552 -11.0440 -10.8191   5.0271   9.3826  12.1309  12.9017
    13.4759  18.2027  18.5107  18.6672  19.6300

          k = 0.0000 0.3849 0.2990 (  1644 PWs)   bands (ev):

   -32.9118 -11.3183 -11.2649 -10.7944   5.4717   9.4006  11.8116  11.9255
    13.5207  17.5439  18.8502  20.7802  21.0048

          k = 0.0000 0.3849-0.2990 (  1644 PWs)   bands (ev):

   -32.9118 -11.3183 -11.2649 -10.7944   5.4717   9.4006  11.8116  11.9255
    13.5207  17.5439  18.8502  20.7802  21.0048

          k = 0.3333 0.1925 0.0000 (  1653 PWs)   bands (ev):

   -32.9246 -11.3552 -11.0440 -10.8192   5.0271   9.3826  12.1309  12.9017
    13.4759  18.2027  18.5107  18.6672  19.6300

          k = 0.3333 0.1925 0.2990 (  1644 PWs)   bands (ev):

   -32.9118 -11.3183 -11.2649 -10.7944   5.4717   9.4006  11.8116  11.9255
    13.5207  17.5439  18.8502  20.7802  21.0048

          k = 0.3333 0.1925-0.2990 (  1644 PWs)   bands (ev):

   -32.9118 -11.3183 -11.2649 -10.7944   5.4717   9.4006  11.8116  11.9255
    13.5207  17.5439  18.8502  20.7802  21.0048

          k = 0.3333 0.5774 0.0000 (  1638 PWs)   bands (ev):

   -32.8822 -11.2986 -11.2986 -10.9806   7.9838   7.9838   8.9019  13.2804
    13.2804  17.2250  17.2250  18.8276  24.1316

          k = 0.3333 0.5774 0.2990 (  1629 PWs)   bands (ev):

   -32.8698 -11.2600 -11.2600 -11.1846   7.2648   7.2648  10.2984  13.0285
    13.0285  19.5148  20.1474  20.1474  22.6883

          k = 0.3333 0.5774-0.2990 (  1629 PWs)   bands (ev):

   -32.8698 -11.2600 -11.2600 -11.1846   7.2648   7.2648  10.2984  13.0285
    13.0285  19.5148  20.1474  20.1474  22.6883

          k = 0.3333-0.1925 0.0000 (  1653 PWs)   bands (ev):

   -32.9246 -11.3552 -11.0440 -10.8192   5.0271   9.3826  12.1309  12.9017
    13.4759  18.2027  18.5107  18.6672  19.6300

          k = 0.3333-0.1925 0.2990 (  1644 PWs)   bands (ev):

   -32.9118 -11.3183 -11.2649 -10.7944   5.4717   9.4006  11.8116  11.9255
    13.5207  17.5439  18.8502  20.7802  21.0048

          k = 0.3333-0.1925-0.2990 (  1644 PWs)   bands (ev):

   -32.9118 -11.3183 -11.2649 -10.7944   5.4717   9.4006  11.8116  11.9255
    13.5207  17.5439  18.8502  20.7802  21.0048

     the Fermi energy is    16.4715 ev

!    total energy              =    -330.35727523 Ry
     total all-electron energy =     -7297.224943 Ry
     estimated scf accuracy    <          5.3E-09 Ry
     smearing contrib. (-TS)   =      -0.00102058 Ry
     internal energy E=F+TS    =    -330.35625465 Ry

     The total energy is F=E-TS. E is the sum of the following terms:
     one-electron contribution =      -2.05974001 Ry
     hartree contribution      =      12.46842708 Ry
     xc contribution           =     -24.05025298 Ry
     ewald contribution        =     -96.27913793 Ry
     one-center paw contrib.   =    -220.43555080 Ry

     convergence has been achieved in   8 iterations

     Forces acting on atoms (cartesian axes, Ry/au):

     atom    1 type  1   force =    -0.00000018   -0.00000025   -0.00000094
     atom    2 type  2   force =    -0.00000009    0.00000010    0.00000040
     atom    3 type  2   force =     0.00000027    0.00000014    0.00000054

     Total force =     0.000001     Total SCF correction =     0.000004
     SCF correction compared to forces is large: reduce conv_thr to get better values


     Computing stress (Cartesian axis) and pressure

          total   stress  (Ry/bohr**3)                   (kbar)     P=      -20.59
   0.00000284  -0.00000000   0.00000000            0.42       -0.00        0.00
  -0.00000000   0.00000284   0.00000000           -0.00        0.42        0.00
   0.00000000   0.00000000  -0.00042550            0.00        0.00      -62.59


     Writing all to output data dir ./tmp/zrb2-60.save/ :
     XML data file, charge density, pseudopotentials, collected wavefunctions

     init_run     :      1.72s CPU      1.76s WALL (       1 calls)
     electrons    :      1.76s CPU      1.84s WALL (       1 calls)
     forces       :      0.11s CPU      0.11s WALL (       1 calls)
     stress       :      0.22s CPU      0.22s WALL (       1 calls)

     Called by init_run:
     wfcinit      :      0.19s CPU      0.20s WALL (       1 calls)
     potinit      :      0.52s CPU      0.54s WALL (       1 calls)
     hinit0       :      0.97s CPU      0.98s WALL (       1 calls)

     Called by electrons:
     c_bands      :      0.23s CPU      0.24s WALL (       8 calls)
     sum_band     :      0.25s CPU      0.26s WALL (       8 calls)
     v_of_rho     :      0.56s CPU      0.57s WALL (       9 calls)
     newd         :      0.13s CPU      0.14s WALL (       9 calls)
     PAW_pot      :      0.62s CPU      0.63s WALL (       9 calls)
     mix_rho      :      0.03s CPU      0.03s WALL (       8 calls)

     Called by c_bands:
     init_us_2    :      0.02s CPU      0.02s WALL (      18 calls)
     cegterg      :      0.18s CPU      0.19s WALL (       8 calls)

     Called by *egterg:
     cdiaghg      :      0.01s CPU      0.01s WALL (      24 calls)
     h_psi        :      0.34s CPU      0.35s WALL (      25 calls)
     s_psi        :      0.01s CPU      0.01s WALL (      25 calls)
     g_psi        :      0.00s CPU      0.00s WALL (      16 calls)

     Called by h_psi:
     h_psi:calbec :      0.01s CPU      0.01s WALL (      25 calls)
     vloc_psi     :      0.32s CPU      0.33s WALL (      25 calls)
     add_vuspsi   :      0.01s CPU      0.01s WALL (      25 calls)

     General routines
     calbec       :      0.01s CPU      0.01s WALL (      50 calls)
     fft          :      0.54s CPU      0.54s WALL (     140 calls)
     ffts         :      0.32s CPU      0.32s WALL (      17 calls)
     fftw         :      0.31s CPU      0.31s WALL (     640 calls)
     interpolate  :      0.33s CPU      0.33s WALL (       9 calls)

     Parallel routines

     PWSCF        :      4.05s CPU      4.50s WALL


   This run was terminated on:  13:49:42  10Jun2025            

=------------------------------------------------------------------------------=
   JOB DONE.
=------------------------------------------------------------------------------=
