9
Lattice="3.1804904915701218 0.0 0.0 -1.5902452457850609 2.7543842779620147 0.0 0.0 0.0 28.86371134822634" Properties=species:S:1:pos:R:3:momenta:R:3:forces:R:3 target_atoms="0 1 2 3 4 5 6 7 8" energy=-13460.834604969092 stress="-0.18783301228704305 -0.0 -0.0 -0.0 -0.18783301228704305 -0.0 -0.0 -0.0 -0.10391616073065874" free_energy=-13460.834604969092 pbc="T T T"
Zr       0.00000000       0.00000000       9.74380951       0.67767263      -0.58216134       1.10368932       0.00000000       0.00000000       1.89724582
B        1.59024520       0.91812848      11.61751697      -0.32086582       0.43270326      -1.31147324       0.00000000       0.00000000      -0.51201411
B       -0.00000002       1.83625698      11.61751697       0.84199976       0.61756546      -0.34554557       0.00000000       0.00000000      -0.51201411
Zr       0.00000000       0.00000000      14.70995717      -0.79790656       1.00881299       2.27176760       0.00000000      -0.00000000     -22.78421504
B        1.59024520       0.91812848      15.44394205       0.12152685      -0.39094732      -0.20029753       0.00000000       0.00000000      10.17463785
B       -0.00000002       1.83625698      15.44394205      -1.27507028      -0.26934736      -1.30616564       0.00000000      -0.00000000      10.17463785
Zr       0.00000000       0.00000000      17.50932071      -0.38435553      -0.19948356      -0.51909082       0.00000000      -0.00000000     -16.95330454
B        1.59024520       0.91812848      18.22990129       1.19173248      -0.03206489      -0.31024980       0.00000000       0.00000000       9.25751301
B       -0.00000002       1.83625698      18.22990129      -0.05473353      -0.58507724       0.61736569       0.00000000      -0.00000000       9.25751301
9
Lattice="3.1804904915701218 0.0 0.0 -1.5902452457850609 2.7543842779620147 0.0 0.0 0.0 28.86371134822634" Properties=species:S:1:pos:R:3:momenta:R:3:forces:R:3 target_atoms="0 6 3" energy=-13431.584660961154 stress="-0.2749193439310958 -0.053160407762433054 0.07090380367616246 -0.053160407762433054 -0.2644192934436749 -0.003661612569415413 0.07090380367616246 -0.003661612569415413 -0.18543753906898766" free_energy=-13431.584660961154 pbc="T T T"
Zr       0.02467931       0.00290775      10.55195482     -36.45980923      75.82303696     693.06533426       0.07071588       1.31011076       2.68375476
B        1.77870175       1.56212180       8.84989930    -782.34328280    1224.09606046     517.12715400     -38.31136826      11.52385200       3.47568616
B       -0.39447101       1.17833159       8.68153758     820.86028265   -1299.26670589   -1085.27630593      38.26385736     -12.82240848      -5.55048773
Zr      -0.03724781      -0.01818875      14.75574895     120.17396323    -144.30706605    -469.86492202      21.63629821      28.73659937     -24.63026634
B        1.40999826       1.11200413      14.44635740     825.97881623    -115.93565525     569.04465038       2.48309301     -11.73803441     -10.48871353
B        0.71413755       1.83493061      15.34895807   -1080.70721836     292.84732380    -280.79900526     -26.65104621     -19.30418732      16.13796865
Zr      -0.02444167       0.00381792      16.75781113     133.29947547     -25.04335487    -583.68416714       2.45086835       2.28280176      19.19864071
B        0.78145247       0.39391401      21.96695497     -87.95932565     -96.33896636    -651.51781113      -0.08722956      -0.13317697      -0.93802636
B        0.79323997       2.27858950      20.42464249      87.15709845      88.12532720    1291.90507284       0.14481147       0.14444355       0.11144370
9
Lattice="3.1804904915701218 0.0 0.0 -1.5902452457850609 2.7543842779620147 0.0 0.0 0.0 28.86371134822634" Properties=species:S:1:pos:R:3:momenta:R:3:forces:R:3 target_atoms="0 3 6" energy=-13029.565780940013 stress="-0.35543717599601177 -0.9029005901076824 -0.16922012111171975 -0.9029005901076824 -2.8516212665473786 -0.6197095642212548 -0.16922012111171975 -0.6197095642212548 -0.4505537141425989" free_energy=-13029.565780940013 pbc="T T T"
Zr      -0.01488803       0.08551591      11.29793898     -37.22572042      80.11627746     694.82790365      -1.05426825       3.34813836      -5.44706228
B       -5.33995560      12.67351201      13.54806771    -787.04599385    1221.27030906     513.69831768     -34.79419041     -28.44472105     -13.90469713
B        7.07669289     -10.62423345      -1.17818069     822.20416972   -1298.88787712   -1085.02837341      -0.00393225      -0.00179257       0.03077945
Zr       0.08899023      -0.17410156      14.24202231     118.01834217    -142.70447817    -475.30051019      17.33340307      32.18874554      12.17208445
B        8.94932276       0.04583170      19.63417527     829.81235309    -117.35826881     570.11497878      -0.01329826       0.02876576      -0.50583524
B       -9.12899695       4.50287313      12.80671760   -1079.99425763     290.10234105    -276.56205685      17.84373927      -8.40572273     -15.72845774
Zr       0.12104444      -0.02188220      16.13345322     134.34915607     -26.66851205    -581.76218280     451.00250868    1492.46200332     307.08065146
B       -0.01770382      -0.48193568      16.04502584     -87.21129168     -93.99303058    -652.68953200    -450.31918222   -1491.17433315    -283.66886948
B        1.58456921       3.07932881      32.17142813      87.09366015      88.12303234    1292.70252830       0.00522037      -0.00108398      -0.02859350
9
Lattice="3.1804904915701218 0.0 0.0 -1.5902452457850609 2.7543842779620147 0.0 0.0 0.0 28.86371134822634" Properties=species:S:1:pos:R:3:momenta:R:3:forces:R:3 target_atoms="0 6 3" energy=-13265.155100417714 stress="-2.0704821485793716 0.8383816544876169 -1.2098021182490206 0.8383816544876169 -0.39804703460218793 0.502056847409597 -1.2098021182490206 0.502056847409597 -1.156030217514865" free_energy=-13265.155100417714 pbc="T T T"
Zr      -0.47568464       0.16146402      12.77910531    -381.98773456     -65.02844716     748.07554269    -589.92695382     227.82738896    -362.73280494
B      -20.65669882      33.54702271      21.66130099    -838.66607299    1139.85056762     445.92122195      -0.00028642       0.00006145       0.00062092
B       21.87576993     -34.10643451     -21.06728175     803.58427508   -1287.46203117   -1102.96406207     -22.65065292      30.19570916       0.98234087
Zr       0.38623685      -0.17125247      13.29515661     146.97342305      25.23721844    -495.69312473     588.60664118    -220.49849283     293.32847937
B       24.03374714      -2.10644645      29.95411407     830.02574235    -118.02779444     567.89438485       0.04239055       0.21106109      -0.70106476
B      -25.13510539       9.07834792       7.74125989    -728.81051312     332.74520034    -381.38135373      22.73213606     -30.17132147      -1.61740926
Zr       0.38168672      -0.35911764      14.89905681      96.34840725    -297.44328696    -505.46594375       1.31894173      -7.32811735      69.36219110
B       -1.38118880      -2.19502100       4.75891471     -58.63235479     -90.31649020    -593.69152982      -0.07671118      -0.00852912       0.47647478
B        3.56806442       7.15882645      55.88695077     131.16524539     360.44485664    1317.30593790      -0.04550518      -0.22775937       0.90117166
9
Lattice="3.1804904915701218 0.0 0.0 -1.5902452457850609 2.7543842779620147 0.0 0.0 0.0 28.86371134822634" Properties=species:S:1:pos:R:3:momenta:R:3:forces:R:3 target_atoms="0 1 2 3 4 5 6 7 8" energy=-13460.834604969092 stress="-0.18783301228704305 -0.0 -0.0 -0.0 -0.18783301228704305 -0.0 -0.0 -0.0 -0.10391616073065874" free_energy=-13460.834604969092 pbc="T T T"
Zr       0.00000000       0.00000000       9.74380951       1.66194620      -1.03992888       1.92216948       0.00000000       0.00000000       1.89724582
B        1.59024520       0.91812848      11.61751697      -1.23666214       0.35286340      -1.59280786      -0.00000000       0.00000000      -0.51201411
B       -0.00000002       1.83625698      11.61751697      -0.11890547       0.00794666      -0.09431555      -0.00000000      -0.00000000      -0.51201411
Zr       0.00000000       0.00000000      14.70995717      -0.36914914       2.13377355      -1.07516432       0.00000000       0.00000000     -22.78421504
B        1.59024520       0.91812848      15.44394205       0.11449187      -0.40847132       0.28960625       0.00000000       0.00000000      10.17463785
B       -0.00000002       1.83625698      15.44394205      -0.13605790       0.37199707       0.97473527       0.00000000      -0.00000000      10.17463785
Zr       0.00000000       0.00000000      17.50932071      -1.07417244      -2.47731914      -0.34562194       0.00000000      -0.00000000     -16.95330454
B        1.59024520       0.91812848      18.22990129       0.27923413       0.28983136      -0.58732430      -0.00000000       0.00000000       9.25751301
B       -0.00000002       1.83625698      18.22990129       0.87927488       0.76930729       0.50872297       0.00000000      -0.00000000       9.25751301
9
Lattice="3.1804904915701218 0.0 0.0 -1.5902452457850609 2.7543842779620147 0.0 0.0 0.0 28.86371134822634" Properties=species:S:1:pos:R:3:momenta:R:3:forces:R:3 target_atoms="6 0 5 3 4 8 7" energy=-11848.3042915445 stress="0.013106699956972173 -0.7414765453066212 -0.6585816031759539 -0.7414765453066212 -4.572816058837344 -4.291831365700241 -0.6585816031759539 -4.291831365700241 -4.06586818581158" free_energy=-11848.3042915445 pbc="T T T"
Zr       0.11702418       0.32778187      11.23999919     168.31863580     210.22542190    1484.20476600       0.10720163       0.59535899       1.07669059
B        4.40258105       2.19510794       7.45785826     309.50112166     140.53320678    -457.77570801       0.32601125       0.48338462       0.55740591
B       -3.79710176      -2.21299638       3.15318680    -417.87585500    -445.62545939    -931.51025349       0.27436396       0.44586271       0.06891148
Zr      -0.29859479      -0.67002199      15.10177858    -345.12974275    -693.97870989     335.16109583    1176.21322582    7768.53213044    7304.52387871
B        2.92107257       0.94219658      13.85747073     189.90086426     -15.06472085     437.26770740      -0.23874878       0.34062720      -5.06381956
B        1.26882890       7.44282531      14.96040553     158.49283169     852.01115038    -564.46885032   -1180.17924526   -7774.48281475   -7310.43299162
Zr       0.29636537      -0.00127401      17.05154019     164.72132982    -113.67396749    -397.94945308       3.25016390       3.74524010       9.87384269
B        0.93296228       0.91265367      19.79731006    -234.60683061    -600.96427631     498.28579237     -10.10354454     -28.94639007      11.25713708
B       -1.92634363       1.88223448      19.28698373       6.67764514     666.53735477    -403.21509664      10.35057176      29.28660076     -11.86105553
9
Lattice="3.1804904915701218 0.0 0.0 -1.5902452457850609 2.7543842779620147 0.0 0.0 0.0 28.86371134822634" Properties=species:S:1:pos:R:3:momenta:R:3:forces:R:3 target_atoms="6 3 0" energy=-13413.915653486834 stress="-0.17426906983770152 -0.18190538672331535 -0.1704743244140822 -0.18190538672331535 -0.38465019683881274 -0.042463871545359445 -0.1704743244140822 -0.042463871545359445 -0.2996297198289587" free_energy=-13413.915653486834 pbc="T T T"
Zr       0.29786403       0.55549231      12.84380076     167.94570765     211.45381811    1489.44945822      -0.45816904      -0.68491746      -2.71440900
B        7.21491690       3.47208740       3.29819956     309.50112166     140.53320678    -457.77570801       0.00180594      -0.00231451       0.00041395
B       -7.59420350      -6.26224973      -5.31114337    -410.94294813    -433.02555997    -930.74140573      -0.00308867      -0.40496777       4.04301216
Zr      -0.66958089      -1.41747836      15.46769632    -344.64235362    -694.44787845     340.11749965     -20.77581761     -49.39705980     -25.78758647
B        4.65841670       0.80639542      17.78017613     191.15616876     -15.59006632     431.54693902       3.52741187       2.59360006       6.05933887
B        2.69519339      15.17181194       9.78710134     156.97321828     850.58476663    -569.32867673      -0.06692324       0.01686952       1.37608038
Zr       0.47384298      -0.12319308      16.62323999     164.07853621    -112.11076731    -398.20468530      30.09923725      -2.53557643      61.00646604
B       -1.22584451      -4.62656562      24.36956220    -244.51232776    -622.19799600     502.41329006       0.00643367       0.40099568      -4.04986055
B       -1.83957072       8.01545877      15.58151006      10.44287695     674.80047644    -407.47671112     -12.33088992      50.01337046     -39.93345565
9
Lattice="3.1804904915701218 0.0 0.0 -1.5902452457850609 2.7543842779620147 0.0 0.0 0.0 28.86371134822634" Properties=species:S:1:pos:R:3:momenta:R:3:forces:R:3 target_atoms="3 6 0" energy=-13038.4377374055 stress="-0.6608173169689646 0.4611997516908366 -0.2698006152263589 0.4611997516908366 -4.627051629167176 2.179852165544315 -0.2698006152263589 2.179852165544315 -2.1107635594734018" free_energy=-13038.4377374055 pbc="T T T"
Zr       0.47870235       0.78317870      14.44759006     167.94570724     211.45381802    1489.44945811     -90.87280351      25.30186574    -222.42020938
B       10.02725275       4.74906686      -0.86145915     309.50083554     140.53338115    -457.77619031       0.21917472       0.27958407       4.91214478
B      -11.32830862     -10.19700814     -13.76848604    -410.94299566    -433.02514590    -930.74127039     158.26932839      26.73990251     -12.85692220
Zr      -1.04068024      -2.16523658      15.83392346    -344.64235388    -694.44787948     340.11750003    -231.39613183    1322.23258693    -385.32395739
B        6.39539052       0.66473357      21.70150256     191.15616871     -15.59006592     431.54693854      -0.00153109       0.00043220      -0.03346059
B        4.12155788      22.90079858       4.61379715     156.97321828     850.58476663    -569.32867673       0.00442487      -0.00202937      -0.04532264
Zr       0.65051725      -0.24391020      16.19446653     164.07853663    -112.11076804    -398.20468410     164.03425385   -1374.26843188     620.15184242
B       -3.44764793     -10.28027985      28.93482684    -244.51199345    -622.19858436     502.41363715      -0.22687029      -0.27608249      -4.88564134
B       -1.74467970      14.14715084      11.87890194      10.44287658     674.80047782    -407.47671223      -0.02984562      -0.00782772       0.50152632
9
Lattice="3.1804904915701218 0.0 0.0 -1.5902452457850609 2.7543842779620147 0.0 0.0 0.0 28.86371134822634" Properties=species:S:1:pos:R:3:momenta:R:3:forces:R:3 target_atoms="0 1 2 3 4 5 6 7 8" energy=-13460.834604969092 stress="-0.18783301228704305 -0.0 -0.0 -0.0 -0.18783301228704305 -0.0 -0.0 -0.0 -0.10391616073065874" free_energy=-13460.834604969092 pbc="T T T"
Zr       0.00000000       0.00000000       9.74380951      -2.02663648      -1.48541895       1.86811311       0.00000000       0.00000000       1.89724582
B        1.59024520       0.91812848      11.61751697       0.26851259      -0.31295844      -0.71166079       0.00000000       0.00000000      -0.51201411
B       -0.00000002       1.83625698      11.61751697       0.19042293       1.90421613       0.11677739       0.00000000      -0.00000000      -0.51201411
Zr       0.00000000       0.00000000      14.70995717       4.84571791       0.06237338      -3.44242923       0.00000000       0.00000000     -22.78421504
B        1.59024520       0.91812848      15.44394205      -0.10517399      -0.28608935      -1.03786365       0.00000000       0.00000000      10.17463785
B       -0.00000002       1.83625698      15.44394205       0.91959519       0.91416682       1.06487628       0.00000000       0.00000000      10.17463785
Zr       0.00000000       0.00000000      17.50932071      -2.75373272      -1.13601586       2.06555356       0.00000000       0.00000000     -16.95330454
B        1.59024520       0.91812848      18.22990129      -0.11272872       0.49437000      -0.24875173      -0.00000000      -0.00000000       9.25751301
B       -0.00000002       1.83625698      18.22990129      -1.22597672      -0.15464373       0.32538506       0.00000000       0.00000000       9.25751301
9
Lattice="3.1804904915701218 0.0 0.0 -1.5902452457850609 2.7543842779620147 0.0 0.0 0.0 28.86371134822634" Properties=species:S:1:pos:R:3:momenta:R:3:forces:R:3 target_atoms="0 1 3 6 7 2 5 4 8" energy=-13462.762817371553 stress="-0.1662829349006967 0.0017270544741901687 -1.652683707359013e-05 0.0017270544741901687 -0.16806507883179883 4.590788075997259e-06 -1.652683707359013e-05 4.590788075997259e-06 -0.10391616073065874" free_energy=-13462.762817371553 pbc="T T T"
Zr       0.00001861       0.00014644       9.74710271       1.59515065       3.47834649      68.83994955      -0.00419321      -0.00587651       1.87082902
B        1.58829017       0.91314620      11.60787003       3.80264194       0.18578624     -22.12777623       0.02918254       0.07752133      -0.45101186
B        0.00042933       1.83935816      11.60667780      -7.94043349      -3.26932099     -26.67564101      -0.02494381      -0.07160291      -0.43851938
Zr       0.00038001       0.00006520      14.69567716       4.76277516      -2.21837161    -197.30019633       0.04010304       0.00552504     -21.76659298
B        1.59470447       0.92476053      15.47287006       2.03083020       1.53901183      62.04893918      -0.13691459      -0.17898478       9.66087693
B       -0.00208987       1.82989707      15.48166257       0.19949803      -1.26581083      57.09783777       0.09140632       0.17275628       9.54679323
Zr      -0.00032585      -0.00006480      17.50368582      -1.87078883       1.15992493    -126.13722392      -0.01636559       0.01426217     -15.82027672
B        1.59281409       0.91633159      18.27758959      -3.76202443       3.03561101      94.81102152      -0.09650353       0.00315114       8.68906345
B       -0.00402677       1.83842361      18.27631854       1.18235075      -2.64517708      89.44308946       0.11822884      -0.01675151       8.70883806
9
Lattice="3.1804904915701218 0.0 0.0 -1.5902452457850609 2.7543842779620147 0.0 0.0 0.0 28.86371134822634" Properties=species:S:1:pos:R:3:momenta:R:3:forces:R:3 target_atoms="6 7 8 4 5 3 1 2 0" energy=-13465.795876722052 stress="-0.13083654200830666 0.0015213871683854914 -0.00021852151241746952 0.0015213871683854914 -0.13455875298032524 7.345260921595614e-06 -0.00021852151241746952 7.345260921595614e-06 -0.10370773895200847" free_energy=-13465.795876722052 pbc="T T T"
Zr       0.00019037       0.00052098       9.75451516       1.59515076       3.47834660      68.83994992      -0.01647229      -0.01619049       1.76446840
B        1.59174551       0.91331501      11.58776324       3.80264202       0.18578620     -22.12777483      -0.06557316       0.05745644      -0.32591329
B       -0.00678588       1.83638744      11.58243851      -7.94043366      -3.26932104     -26.67563966       0.08223853      -0.04109137      -0.26962490
Zr       0.00089285      -0.00017367      14.67443254       4.76277564      -2.21837165    -197.30019747       0.05720396       0.02158133     -20.30964292
B        1.59654982       0.92615898      15.52925191       2.03082984       1.53901228      62.04894050      -0.15386407      -0.22994815       8.71071933
B       -0.00190859       1.82874687      15.53354552       0.19949766      -1.26581088      57.09783938       0.08482198       0.20831412       8.64249691
Zr      -0.00052729       0.00006010      17.49010379      -1.87078849       1.15992472    -126.13722681      -0.05067233       0.01398037     -13.46774818
B        1.58939567       0.91908995      18.36374128      -3.76202454       3.03561091      94.81102054      -0.00418781      -0.06087550       7.57347850
B       -0.00295240       1.83602002      18.35759256       1.18235077      -2.64517713      89.44308843       0.06650570       0.04677325       7.68176642
9
Lattice="3.1804904915701218 0.0 0.0 -1.5902452457850609 2.7543842779620147 0.0 0.0 0.0 28.86371134822634" Properties=species:S:1:pos:R:3:momenta:R:3:forces:R:3 target_atoms="1 2 4 5 7 8 6 0 3" energy=-13468.460171616167 stress="-0.09771676051283204 0.0010228275833321892 -0.00041684355730055105 0.0010228275833321892 -0.10320917936695516 -9.181576151994517e-06 -0.00041684355730055105 -9.181576151994517e-06 -0.1019678302712055" free_energy=-13468.460171616167 pbc="T T T"
Zr       0.00036213       0.00089552       9.76192762       1.59515078       3.47834659      68.83994996      -0.03073060      -0.02799880       1.59350186
B        1.59520084       0.91348383      11.56765646       3.80264200       0.18578619     -22.12777429      -0.17210656       0.02860635      -0.18250359
B       -0.01400109       1.83341671      11.55819923      -7.94043366      -3.26932105     -26.67563914       0.20368459      -0.00006993      -0.08349246
Zr       0.00140569      -0.00041253      14.65318792       4.76277553      -2.21837164    -197.30019872       0.06785270       0.03354570     -18.71332956
B        1.59839517       0.92755743      15.58563376       2.03082979       1.53901220      62.04894126      -0.17583723      -0.27857851       7.60179663
B       -0.00172731       1.82759667      15.58542847       0.19949783      -1.26581087      57.09784003       0.08816210       0.24527116       7.60485855
Zr      -0.00072873       0.00018500      17.47652176      -1.87078856       1.15992477    -126.13722726      -0.06831832       0.01224077     -10.77827323
B        1.58597724       0.92184831      18.44989296      -3.76202452       3.03561089      94.81102014       0.03683645      -0.07341091       6.37983048
B       -0.00187804       1.83361643      18.43886658       1.18235081      -2.64517708      89.44308803       0.05045713       0.06039444       6.57761131
