
     Program PWSCF v.7.4 starts on 13Nov2025 at  8:22:55 

     This program is part of the open-source Quantum ESPRESSO suite
     for quantum simulation of materials; please cite
         "P. Giannozzi et al., J. Phys.:Condens. Matter 21 395502 (2009);
         "P. Giannozzi et al., J. Phys.:Condens. Matter 29 465901 (2017);
         "P. Giannozzi et al., J. Chem. Phys. 152 154105 (2020);
          URL http://www.quantum-espresso.org", 
     in publications or presentations arising from this work. More details at
     http://www.quantum-espresso.org/quote

     Parallel version (MPI & OpenMP), running on       4 processor cores
     Number of MPI processes:                 4
     Threads/MPI process:                     1

     MPI processes distributed on     1 nodes
     140738 MiB available memory on the printing compute node when the environment starts

     Reading input from espresso.pwi
Warning: card &CELL ignored
Warning: card / ignored

     Current dimensions of program PWSCF are:
     Max number of different atomic species (ntypx) = 10
     Max number of k-points (npk) =  40000
     Max angular momentum in pseudopotentials (lmaxx) =  4
     file Zr.pbe-spn-kjpaw_psl.1.0.0.UPF: wavefunction(s)  4S 4P renormalized
     Message from routine setup:
     using ibrav=0 with symmetry is DISCOURAGED, use correct ibrav instead

     R & G space division:  proc/nbgrp/npool/nimage =       4
     Subspace diagonalization in iterative solution of the eigenvalue problem:
     a serial algorithm will be used


     Parallelization info
     --------------------
     sticks:   dense  smooth     PW     G-vecs:    dense   smooth      PW
     Min         250     124     30                57576    20386    2540
     Max         251     125     31                57591    20427    2579
     Sum        1003     499    121               230333    81647   10215

     Using Slab Decomposition



     bravais-lattice index     =            0
     lattice parameter (alat)  =       6.0103  a.u.
     unit-cell volume          =    1706.3478 (a.u.)^3
     number of atoms/cell      =            9
     number of atomic types    =            2
     number of electrons       =        54.00
     number of Kohn-Sham states=           32
     kinetic-energy cutoff     =      50.0000  Ry
     charge density cutoff     =     400.0000  Ry
     scf convergence threshold =      1.0E-07
     mixing beta               =       0.7000
     number of iterations used =            8  plain     mixing
     energy convergence thresh.=      1.0E-04
     force convergence thresh. =      1.0E-03
     Exchange-correlation= SLA  PW   PBX  PBC
                           (   1   4   3   4   0   0   0)
     nstep                     =           50


     celldm(1)=   6.010256  celldm(2)=   0.000000  celldm(3)=   0.000000
     celldm(4)=   0.000000  celldm(5)=   0.000000  celldm(6)=   0.000000

     crystal axes: (cart. coord. in units of alat)
               a(1) = (   1.000000   0.000000   0.000000 )  
               a(2) = (  -0.500000   0.866025   0.000000 )  
               a(3) = (   0.000000   0.000000   9.075239 )  

     reciprocal axes: (cart. coord. in units 2 pi/alat)
               b(1) = (  1.000000  0.577350 -0.000000 )  
               b(2) = (  0.000000  1.154701  0.000000 )  
               b(3) = (  0.000000 -0.000000  0.110190 )  


     PseudoPot. # 1 for Zr read from file:
     /home/cganley2/qe-data/pseudopotentials/SSSP_1.3.0_PBE_precision/Zr.pbe-spn-kjpaw_psl.1.0.0.UPF
     MD5 check sum: 83bf7718257ce689f169bc8534fef73a
     Pseudo is Projector augmented-wave + core cor, Zval = 12.0
     Generated using &quot;atomic&quot; code by A. Dal Corso  v.6.2.2
     Shape of augmentation charge: PSQ
     Using radial grid of 1225 points,  6 beta functions with: 
                l(1) =   0
                l(2) =   0
                l(3) =   1
                l(4) =   1
                l(5) =   2
                l(6) =   2
     Q(r) pseudized with 0 coefficients 


     PseudoPot. # 2 for B  read from file:
     /home/cganley2/qe-data/pseudopotentials/SSSP_1.3.0_PBE_precision/B.pbe-n-kjpaw_psl.1.0.0.UPF
     MD5 check sum: 757e44352cacacece234d5873ff275d1
     Pseudo is Projector augmented-wave + core cor, Zval =  3.0
     Generated using &quot;atomic&quot; code by A. Dal Corso  v.6.3
     Shape of augmentation charge: PSQ
     Using radial grid of 1059 points,  4 beta functions with: 
                l(1) =   0
                l(2) =   0
                l(3) =   1
                l(4) =   1
     Q(r) pseudized with 0 coefficients 


     atomic species   valence    mass     pseudopotential
     Zr               12.00    91.22400     Zr( 1.00)
     B                 3.00    10.81000     B ( 1.00)

     12 Sym. Ops. (no inversion) found



   Cartesian axes

     site n.     atom                  positions (alat units)
         1        Zr     tau(   1) = (   0.0000000   0.0000000   3.1441692  )
         2        B      tau(   2) = (   0.5000000   0.2886751   3.7015493  )
         3        B      tau(   3) = (  -0.0000000   0.5773503   3.7015493  )
         4        Zr     tau(   4) = (   0.0000000   0.0000000   4.2589294  )
         5        B      tau(   5) = (   0.5000000   0.2886751   4.8163095  )
         6        B      tau(   6) = (  -0.0000000   0.5773503   4.8163095  )
         7        Zr     tau(   7) = (   0.0000000   0.0000000   5.3736896  )
         8        B      tau(   8) = (   0.5000000   0.2886751   5.9310697  )
         9        B      tau(   9) = (  -0.0000000   0.5773503   5.9310697  )

     number of k points=     1  Gaussian smearing, width (Ry)=  0.0100
                       cart. coord. in units 2pi/alat
        k(    1) = (   0.0000000   0.0000000   0.0000000), wk =   2.0000000

     Dense  grid:   230333 G-vectors     FFT dimensions: (  40,  40, 360)

     Smooth grid:    81647 G-vectors     FFT dimensions: (  27,  27, 250)

     Estimated max dynamical RAM per process >     221.70 MB

     Estimated total dynamical RAM >     886.80 MB

     Initial potential from superposition of free atoms

     starting charge      53.9919, renormalised to      54.0000

     negative rho (up, down):  2.799E-04 0.000E+00
     Starting wfcs are   63 randomized atomic wfcs
     Checking if some PAW data can be deallocated... 

     total cpu time spent up to now is        3.3 secs

     per-process dynamical memory:   240.6 Mb

     Self-consistent Calculation

     iteration #  1     ecut=    50.00 Ry     beta= 0.70
     Davidson diagonalization with overlap
     ethr =  1.00E-02,  avg # of iterations =  2.0

     negative rho (up, down):  2.208E-04 0.000E+00

     total cpu time spent up to now is        4.2 secs

     total energy              =    -983.47348312 Ry
     estimated scf accuracy    <       6.45015139 Ry

     iteration #  2     ecut=    50.00 Ry     beta= 0.70
     Davidson diagonalization with overlap
     ethr =  1.00E-02,  avg # of iterations = 12.0

     negative rho (up, down):  9.651E-04 0.000E+00

     total cpu time spent up to now is        5.2 secs

     total energy              =    -914.42912163 Ry
     estimated scf accuracy    <    3478.44427321 Ry

     iteration #  3     ecut=    50.00 Ry     beta= 0.70
     Davidson diagonalization with overlap
     ethr =  1.00E-02,  avg # of iterations = 13.0

     negative rho (up, down):  1.214E-03 0.000E+00

     total cpu time spent up to now is        6.2 secs

     total energy              =    -985.89204390 Ry
     estimated scf accuracy    <      87.88173670 Ry

     iteration #  4     ecut=    50.00 Ry     beta= 0.70
     Davidson diagonalization with overlap
     ethr =  1.00E-02,  avg # of iterations =  9.0

     negative rho (up, down):  7.179E-04 0.000E+00

     total cpu time spent up to now is        7.1 secs

     total energy              =    -985.72414728 Ry
     estimated scf accuracy    <     185.57010680 Ry

     iteration #  5     ecut=    50.00 Ry     beta= 0.70
     Davidson diagonalization with overlap
     ethr =  1.00E-02,  avg # of iterations =  3.0

     negative rho (up, down):  2.943E-04 0.000E+00

     total cpu time spent up to now is        7.9 secs

     total energy              =    -988.19665060 Ry
     estimated scf accuracy    <       3.76607304 Ry

     iteration #  6     ecut=    50.00 Ry     beta= 0.70
     Davidson diagonalization with overlap
     ethr =  6.97E-03,  avg # of iterations =  8.0

     negative rho (up, down):  2.153E-04 0.000E+00

     total cpu time spent up to now is        8.6 secs

     total energy              =    -988.56444381 Ry
     estimated scf accuracy    <       2.38737843 Ry

     iteration #  7     ecut=    50.00 Ry     beta= 0.70
     Davidson diagonalization with overlap
     ethr =  4.42E-03,  avg # of iterations =  2.0

     negative rho (up, down):  1.496E-04 0.000E+00

     total cpu time spent up to now is        9.4 secs

     total energy              =    -988.61197003 Ry
     estimated scf accuracy    <       1.23481334 Ry

     iteration #  8     ecut=    50.00 Ry     beta= 0.70
     Davidson diagonalization with overlap
     ethr =  2.29E-03,  avg # of iterations =  1.0

     negative rho (up, down):  1.268E-04 0.000E+00

     total cpu time spent up to now is       10.2 secs

     total energy              =    -988.65338533 Ry
     estimated scf accuracy    <       1.76481528 Ry

     iteration #  9     ecut=    50.00 Ry     beta= 0.70
     Davidson diagonalization with overlap
     ethr =  2.29E-03,  avg # of iterations =  1.0

     negative rho (up, down):  1.848E-04 0.000E+00

     total cpu time spent up to now is       10.9 secs

     total energy              =    -988.65892677 Ry
     estimated scf accuracy    <       0.21138027 Ry

     iteration # 10     ecut=    50.00 Ry     beta= 0.70
     Davidson diagonalization with overlap
     ethr =  3.91E-04,  avg # of iterations =  6.0

     negative rho (up, down):  2.599E-04 0.000E+00

     total cpu time spent up to now is       11.7 secs

     total energy              =    -988.66762301 Ry
     estimated scf accuracy    <       2.81340467 Ry

     iteration # 11     ecut=    50.00 Ry     beta= 0.70
     Davidson diagonalization with overlap
     ethr =  3.91E-04,  avg # of iterations =  1.0

     negative rho (up, down):  3.227E-04 0.000E+00

     total cpu time spent up to now is       12.5 secs

     total energy              =    -988.66191645 Ry
     estimated scf accuracy    <       1.07554763 Ry

     iteration # 12     ecut=    50.00 Ry     beta= 0.70
     Davidson diagonalization with overlap
     ethr =  3.91E-04,  avg # of iterations =  1.0

     negative rho (up, down):  3.128E-04 0.000E+00

     total cpu time spent up to now is       13.2 secs

     total energy              =    -988.66562726 Ry
     estimated scf accuracy    <       0.06096496 Ry

     iteration # 13     ecut=    50.00 Ry     beta= 0.70
     Davidson diagonalization with overlap
     ethr =  1.13E-04,  avg # of iterations =  8.0

     negative rho (up, down):  3.145E-04 0.000E+00

     total cpu time spent up to now is       14.0 secs

     total energy              =    -988.67064677 Ry
     estimated scf accuracy    <       0.15430629 Ry

     iteration # 14     ecut=    50.00 Ry     beta= 0.70
     Davidson diagonalization with overlap
     ethr =  1.13E-04,  avg # of iterations =  1.0

     negative rho (up, down):  3.115E-04 0.000E+00

     total cpu time spent up to now is       14.8 secs

     total energy              =    -988.67092288 Ry
     estimated scf accuracy    <       0.03948971 Ry

     iteration # 15     ecut=    50.00 Ry     beta= 0.70
     Davidson diagonalization with overlap
     ethr =  7.31E-05,  avg # of iterations =  1.0

     negative rho (up, down):  3.058E-04 0.000E+00

     total cpu time spent up to now is       15.5 secs

     total energy              =    -988.66953508 Ry
     estimated scf accuracy    <       0.15090141 Ry

     iteration # 16     ecut=    50.00 Ry     beta= 0.70
     Davidson diagonalization with overlap
     ethr =  7.31E-05,  avg # of iterations =  1.0

     negative rho (up, down):  3.227E-04 0.000E+00

     total cpu time spent up to now is       16.3 secs

     total energy              =    -988.67054292 Ry
     estimated scf accuracy    <       0.00442740 Ry

     iteration # 17     ecut=    50.00 Ry     beta= 0.70
     Davidson diagonalization with overlap
     ethr =  8.20E-06,  avg # of iterations =  7.0

     negative rho (up, down):  3.395E-04 0.000E+00

     total cpu time spent up to now is       17.1 secs

     total energy              =    -988.67081384 Ry
     estimated scf accuracy    <       0.00100369 Ry

     iteration # 18     ecut=    50.00 Ry     beta= 0.70
     Davidson diagonalization with overlap
     ethr =  1.86E-06,  avg # of iterations =  4.0

     negative rho (up, down):  3.647E-04 0.000E+00

     total cpu time spent up to now is       17.8 secs

     total energy              =    -988.67086757 Ry
     estimated scf accuracy    <       0.01420222 Ry

     iteration # 19     ecut=    50.00 Ry     beta= 0.70
     Davidson diagonalization with overlap
     ethr =  1.86E-06,  avg # of iterations =  1.0

     negative rho (up, down):  3.750E-04 0.000E+00

     total cpu time spent up to now is       18.6 secs

     total energy              =    -988.67087178 Ry
     estimated scf accuracy    <       0.00292536 Ry

     iteration # 20     ecut=    50.00 Ry     beta= 0.70
     Davidson diagonalization with overlap
     ethr =  1.86E-06,  avg # of iterations =  2.0

     negative rho (up, down):  3.769E-04 0.000E+00

     total cpu time spent up to now is       19.4 secs

     total energy              =    -988.67088246 Ry
     estimated scf accuracy    <       0.00069123 Ry

     iteration # 21     ecut=    50.00 Ry     beta= 0.70
     Davidson diagonalization with overlap
     ethr =  1.28E-06,  avg # of iterations =  6.0

     negative rho (up, down):  3.805E-04 0.000E+00

     total cpu time spent up to now is       20.1 secs

     total energy              =    -988.67089998 Ry
     estimated scf accuracy    <       0.00009054 Ry

     iteration # 22     ecut=    50.00 Ry     beta= 0.70
     Davidson diagonalization with overlap
     ethr =  1.68E-07,  avg # of iterations =  2.0

     negative rho (up, down):  3.777E-04 0.000E+00

     total cpu time spent up to now is       20.9 secs

     total energy              =    -988.67089878 Ry
     estimated scf accuracy    <       0.00015973 Ry

     iteration # 23     ecut=    50.00 Ry     beta= 0.70
     Davidson diagonalization with overlap
     ethr =  1.68E-07,  avg # of iterations =  2.0

     negative rho (up, down):  3.752E-04 0.000E+00

     total cpu time spent up to now is       21.7 secs

     total energy              =    -988.67089641 Ry
     estimated scf accuracy    <       0.00005129 Ry

     iteration # 24     ecut=    50.00 Ry     beta= 0.70
     Davidson diagonalization with overlap
     ethr =  9.50E-08,  avg # of iterations =  6.0

     negative rho (up, down):  3.763E-04 0.000E+00

     total cpu time spent up to now is       22.4 secs

     total energy              =    -988.67090011 Ry
     estimated scf accuracy    <       0.00004507 Ry

     iteration # 25     ecut=    50.00 Ry     beta= 0.70
     Davidson diagonalization with overlap
     ethr =  8.35E-08,  avg # of iterations =  2.0

     negative rho (up, down):  3.763E-04 0.000E+00

     total cpu time spent up to now is       23.2 secs

     total energy              =    -988.67090078 Ry
     estimated scf accuracy    <       0.00001902 Ry

     iteration # 26     ecut=    50.00 Ry     beta= 0.70
     Davidson diagonalization with overlap
     ethr =  3.52E-08,  avg # of iterations =  2.0

     negative rho (up, down):  3.767E-04 0.000E+00

     total cpu time spent up to now is       24.0 secs

     total energy              =    -988.67090081 Ry
     estimated scf accuracy    <       0.00001304 Ry

     iteration # 27     ecut=    50.00 Ry     beta= 0.70
     Davidson diagonalization with overlap
     ethr =  2.42E-08,  avg # of iterations =  5.0

     negative rho (up, down):  3.767E-04 0.000E+00

     total cpu time spent up to now is       24.7 secs

     total energy              =    -988.67090112 Ry
     estimated scf accuracy    <       0.00000095 Ry

     iteration # 28     ecut=    50.00 Ry     beta= 0.70
     Davidson diagonalization with overlap
     ethr =  1.76E-09,  avg # of iterations =  7.0

     negative rho (up, down):  3.769E-04 0.000E+00

     total cpu time spent up to now is       25.5 secs

     total energy              =    -988.67090128 Ry
     estimated scf accuracy    <       0.00000027 Ry

     iteration # 29     ecut=    50.00 Ry     beta= 0.70
     Davidson diagonalization with overlap
     ethr =  5.01E-10,  avg # of iterations =  8.0

     negative rho (up, down):  3.768E-04 0.000E+00

     total cpu time spent up to now is       26.3 secs

     total energy              =    -988.67090132 Ry
     estimated scf accuracy    <       0.00000030 Ry

     iteration # 30     ecut=    50.00 Ry     beta= 0.70
     Davidson diagonalization with overlap
     ethr =  5.01E-10,  avg # of iterations =  1.0

     negative rho (up, down):  3.768E-04 0.000E+00

     total cpu time spent up to now is       27.1 secs

     total energy              =    -988.67090131 Ry
     estimated scf accuracy    <       0.00000026 Ry

     iteration # 31     ecut=    50.00 Ry     beta= 0.70
     Davidson diagonalization with overlap
     ethr =  4.83E-10,  avg # of iterations =  1.0

     negative rho (up, down):  3.768E-04 0.000E+00

     total cpu time spent up to now is       27.8 secs

     total energy              =    -988.67090130 Ry
     estimated scf accuracy    <       0.00000017 Ry

     iteration # 32     ecut=    50.00 Ry     beta= 0.70
     Davidson diagonalization with overlap
     ethr =  3.10E-10,  avg # of iterations =  7.0

     negative rho (up, down):  3.768E-04 0.000E+00

     total cpu time spent up to now is       28.6 secs

     End of self-consistent calculation

          k = 0.0000 0.0000 0.0000 ( 10215 PWs)   bands (ev):

   -47.6279 -46.6475 -46.3928 -25.7339 -25.3105 -25.3105 -25.1254 -24.9242
   -24.4185 -24.4185 -24.0301 -24.0301 -11.2294 -10.3079  -8.7823  -5.0757
    -3.4030  -1.5932  -1.1853  -1.1853  -0.4763  -0.4763  -0.0358   1.1234
     1.1234   1.4557   2.0689   2.0689   2.0769   2.5477   2.5477   2.8428

     the Fermi energy is     2.0301 ev

!    total energy              =    -988.67090129 Ry
     total all-electron energy =    -21889.273904 Ry
     estimated scf accuracy    <       0.00000003 Ry
     smearing contrib. (-TS)   =      -0.01541452 Ry
     internal energy E=F+TS    =    -988.65548676 Ry

     The total energy is F=E-TS. E is the sum of the following terms:
     one-electron contribution =   -4288.81740424 Ry
     hartree contribution      =    2151.96546175 Ry
     xc contribution           =     -71.92373584 Ry
     ewald contribution        =    1881.38786089 Ry
     one-center paw contrib.   =    -661.26766932 Ry

     convergence has been achieved in  32 iterations

     negative rho (up, down):  3.768E-04 0.000E+00

     Forces acting on atoms (cartesian axes, Ry/au):

     atom    1 type  1   force =    -0.00000000   -0.00000000   -0.05786259
     atom    2 type  2   force =     0.00000000    0.00000000   -0.00261084
     atom    3 type  2   force =     0.00000000    0.00000000   -0.00261084
     atom    4 type  1   force =     0.00000000    0.00000000    0.13242937
     atom    5 type  2   force =    -0.00000000    0.00000000   -0.05394487
     atom    6 type  2   force =     0.00000000    0.00000000   -0.05394487
     atom    7 type  1   force =     0.00000000    0.00000000    0.06622631
     atom    8 type  2   force =     0.00000000    0.00000000   -0.01384083
     atom    9 type  2   force =     0.00000000    0.00000000   -0.01384083

     Total force =     0.177450     Total SCF correction =     0.000984


     Computing stress (Cartesian axis) and pressure


     negative rho (up, down):  3.768E-04 0.000E+00
          total   stress  (Ry/bohr**3)                   (kbar)     P=      135.87
   0.00132639  -0.00000000  -0.00000000          195.12       -0.00       -0.00
  -0.00000000   0.00132639  -0.00000000           -0.00      195.12       -0.00
   0.00000000   0.00000000   0.00011810            0.00        0.00       17.37


     BFGS Geometry Optimization
     Energy error            =      3.1E-02 Ry
     Gradient error          =      1.3E-01 Ry/Bohr

     number of scf cycles    =   1
     number of bfgs steps    =   0

     energy             new  =    -988.6709012868 Ry

     new trust radius        =       0.1324293677 bohr
     new conv_thr            =       0.0000001000 Ry


ATOMIC_POSITIONS (angstrom)
Zr              -0.0000000000       -0.0000000000        9.9693804373
B                1.5902452000        0.9181284800       11.7713604014
B               -0.0000000200        1.8362569800       11.7713604014
Zr               0.0000000000        0.0000000000       13.6155626035
B                1.5902452000        0.9181284800       15.2896796024
B               -0.0000000200        1.8362569800       15.2896796024
Zr               0.0000000000        0.0000000000       17.1260134541
B                1.5902452000        0.9181284800       18.8563857488
B               -0.0000000200        1.8362569800       18.8563857488



     Writing config-only to output data dir ./pwscf.save/ :
     XML data file
     NEW-OLD atomic charge density approx. for the potential

     negative rho (up, down):  3.746E-04 0.000E+00

     total cpu time spent up to now is       31.8 secs

     per-process dynamical memory:   278.6 Mb

     Self-consistent Calculation

     iteration #  1     ecut=    50.00 Ry     beta= 0.70
     Davidson diagonalization with overlap
     ethr =  1.00E-06,  avg # of iterations = 15.0

     negative rho (up, down):  3.940E-04 0.000E+00

     total cpu time spent up to now is       32.8 secs

     total energy              =    -988.67306396 Ry
     estimated scf accuracy    <       0.05105455 Ry

     iteration #  2     ecut=    50.00 Ry     beta= 0.70
     Davidson diagonalization with overlap
     ethr =  9.45E-05,  avg # of iterations = 11.0

     negative rho (up, down):  6.647E-04 0.000E+00

     total cpu time spent up to now is       33.7 secs

     total energy              =    -988.06728827 Ry
     estimated scf accuracy    <      41.53355496 Ry

     iteration #  3     ecut=    50.00 Ry     beta= 0.70
     Davidson diagonalization with overlap
     ethr =  9.45E-05,  avg # of iterations = 13.0

     negative rho (up, down):  5.301E-04 0.000E+00

     total cpu time spent up to now is       34.6 secs

     total energy              =    -988.62229396 Ry
     estimated scf accuracy    <       1.57276142 Ry

     iteration #  4     ecut=    50.00 Ry     beta= 0.70
     Davidson diagonalization with overlap
     ethr =  9.45E-05,  avg # of iterations =  8.0

     negative rho (up, down):  4.188E-04 0.000E+00

     total cpu time spent up to now is       35.4 secs

     total energy              =    -988.64840065 Ry
     estimated scf accuracy    <       4.52908284 Ry

     iteration #  5     ecut=    50.00 Ry     beta= 0.70
     Davidson diagonalization with overlap
     ethr =  9.45E-05,  avg # of iterations = 11.0

     negative rho (up, down):  4.153E-04 0.000E+00

     total cpu time spent up to now is       36.3 secs

     total energy              =    -988.69698066 Ry
     estimated scf accuracy    <       0.73828789 Ry

     iteration #  6     ecut=    50.00 Ry     beta= 0.70
     Davidson diagonalization with overlap
     ethr =  9.45E-05,  avg # of iterations =  5.0

     negative rho (up, down):  4.137E-04 0.000E+00

     total cpu time spent up to now is       37.1 secs

     total energy              =    -988.70327416 Ry
     estimated scf accuracy    <       0.09894610 Ry

     iteration #  7     ecut=    50.00 Ry     beta= 0.70
     Davidson diagonalization with overlap
     ethr =  9.45E-05,  avg # of iterations =  2.0

     negative rho (up, down):  4.060E-04 0.000E+00

     total cpu time spent up to now is       37.8 secs

     total energy              =    -988.70583551 Ry
     estimated scf accuracy    <       0.11405089 Ry

     iteration #  8     ecut=    50.00 Ry     beta= 0.70
     Davidson diagonalization with overlap
     ethr =  9.45E-05,  avg # of iterations =  1.0

     negative rho (up, down):  4.035E-04 0.000E+00

     total cpu time spent up to now is       38.6 secs

     total energy              =    -988.70695861 Ry
     estimated scf accuracy    <       0.02668943 Ry

     iteration #  9     ecut=    50.00 Ry     beta= 0.70
     Davidson diagonalization with overlap
     ethr =  4.94E-05,  avg # of iterations =  1.0

     negative rho (up, down):  4.020E-04 0.000E+00

     total cpu time spent up to now is       39.3 secs

     total energy              =    -988.70711050 Ry
     estimated scf accuracy    <       0.01115242 Ry

     iteration # 10     ecut=    50.00 Ry     beta= 0.70
     Davidson diagonalization with overlap
     ethr =  2.07E-05,  avg # of iterations =  2.0

     negative rho (up, down):  4.034E-04 0.000E+00

     total cpu time spent up to now is       40.1 secs

     total energy              =    -988.70737663 Ry
     estimated scf accuracy    <       0.00130493 Ry

     iteration # 11     ecut=    50.00 Ry     beta= 0.70
     Davidson diagonalization with overlap
     ethr =  2.42E-06,  avg # of iterations =  6.0

     negative rho (up, down):  4.042E-04 0.000E+00

     total cpu time spent up to now is       40.9 secs

     total energy              =    -988.70756660 Ry
     estimated scf accuracy    <       0.00411931 Ry

     iteration # 12     ecut=    50.00 Ry     beta= 0.70
     Davidson diagonalization with overlap
     ethr =  2.42E-06,  avg # of iterations =  1.0

     negative rho (up, down):  4.042E-04 0.000E+00

     total cpu time spent up to now is       41.6 secs

     total energy              =    -988.70751011 Ry
     estimated scf accuracy    <       0.00104367 Ry

     iteration # 13     ecut=    50.00 Ry     beta= 0.70
     Davidson diagonalization with overlap
     ethr =  1.93E-06,  avg # of iterations =  2.0

     negative rho (up, down):  4.046E-04 0.000E+00

     total cpu time spent up to now is       42.4 secs

     total energy              =    -988.70749717 Ry
     estimated scf accuracy    <       0.00284263 Ry

     iteration # 14     ecut=    50.00 Ry     beta= 0.70
     Davidson diagonalization with overlap
     ethr =  1.93E-06,  avg # of iterations =  1.0

     negative rho (up, down):  4.046E-04 0.000E+00

     total cpu time spent up to now is       43.1 secs

     total energy              =    -988.70751489 Ry
     estimated scf accuracy    <       0.00023451 Ry

     iteration # 15     ecut=    50.00 Ry     beta= 0.70
     Davidson diagonalization with overlap
     ethr =  4.34E-07,  avg # of iterations =  6.0

     negative rho (up, down):  4.049E-04 0.000E+00

     total cpu time spent up to now is       43.9 secs

     total energy              =    -988.70751535 Ry
     estimated scf accuracy    <       0.00012932 Ry

     iteration # 16     ecut=    50.00 Ry     beta= 0.70
     Davidson diagonalization with overlap
     ethr =  2.39E-07,  avg # of iterations =  5.0

     negative rho (up, down):  4.051E-04 0.000E+00

     total cpu time spent up to now is       44.7 secs

     total energy              =    -988.70752543 Ry
     estimated scf accuracy    <       0.00000360 Ry

     iteration # 17     ecut=    50.00 Ry     beta= 0.70
     Davidson diagonalization with overlap
     ethr =  6.67E-09,  avg # of iterations =  8.0

     negative rho (up, down):  4.053E-04 0.000E+00

     total cpu time spent up to now is       45.5 secs

     total energy              =    -988.70752614 Ry
     estimated scf accuracy    <       0.00000648 Ry

     iteration # 18     ecut=    50.00 Ry     beta= 0.70
     Davidson diagonalization with overlap
     ethr =  6.67E-09,  avg # of iterations =  2.0

     negative rho (up, down):  4.056E-04 0.000E+00

     total cpu time spent up to now is       46.2 secs

     total energy              =    -988.70752610 Ry
     estimated scf accuracy    <       0.00000289 Ry

     iteration # 19     ecut=    50.00 Ry     beta= 0.70
     Davidson diagonalization with overlap
     ethr =  5.36E-09,  avg # of iterations =  5.0

     negative rho (up, down):  4.056E-04 0.000E+00

     total cpu time spent up to now is       47.0 secs

     total energy              =    -988.70752602 Ry
     estimated scf accuracy    <       0.00000164 Ry

     iteration # 20     ecut=    50.00 Ry     beta= 0.70
     Davidson diagonalization with overlap
     ethr =  3.03E-09,  avg # of iterations =  5.0

     negative rho (up, down):  4.057E-04 0.000E+00

     total cpu time spent up to now is       47.8 secs

     total energy              =    -988.70752606 Ry
     estimated scf accuracy    <       0.00000055 Ry

     iteration # 21     ecut=    50.00 Ry     beta= 0.70
     Davidson diagonalization with overlap
     ethr =  1.01E-09,  avg # of iterations =  7.0

     negative rho (up, down):  4.057E-04 0.000E+00

     total cpu time spent up to now is       48.5 secs

     total energy              =    -988.70752610 Ry
     estimated scf accuracy    <       0.00000029 Ry

     iteration # 22     ecut=    50.00 Ry     beta= 0.70
     Davidson diagonalization with overlap
     ethr =  5.44E-10,  avg # of iterations =  5.0

     negative rho (up, down):  4.057E-04 0.000E+00

     total cpu time spent up to now is       49.3 secs

     End of self-consistent calculation

          k = 0.0000 0.0000 0.0000 ( 10215 PWs)   bands (ev):

   -47.5884 -46.5189 -46.4296 -25.6761 -25.2623 -25.2623 -25.1021 -24.8748
   -24.2970 -24.2970 -24.0664 -24.0664 -11.1986 -10.2760  -8.8566  -5.0346
    -3.3695  -1.7210  -1.0911  -1.0911  -0.4045  -0.4045   0.1067   0.8901
     0.8901   1.3592   2.1557   2.1557   2.1590   2.7155   2.7155   2.8859

     the Fermi energy is     2.1154 ev

!    total energy              =    -988.70752608 Ry
     total all-electron energy =    -21889.310529 Ry
     estimated scf accuracy    <       0.00000002 Ry
     smearing contrib. (-TS)   =      -0.01542422 Ry
     internal energy E=F+TS    =    -988.69210186 Ry

     The total energy is F=E-TS. E is the sum of the following terms:
     one-electron contribution =   -4270.91232617 Ry
     hartree contribution      =    2143.03947283 Ry
     xc contribution           =     -71.91955556 Ry
     ewald contribution        =    1872.36735519 Ry
     one-center paw contrib.   =    -661.26704815 Ry

     convergence has been achieved in  22 iterations

     negative rho (up, down):  4.057E-04 0.000E+00

     Forces acting on atoms (cartesian axes, Ry/au):

     atom    1 type  1   force =     0.00000000    0.00000000   -0.07325539
     atom    2 type  2   force =    -0.00000000   -0.00000000   -0.00792023
     atom    3 type  2   force =     0.00000000    0.00000000   -0.00792023
     atom    4 type  1   force =     0.00000000    0.00000000    0.19275262
     atom    5 type  2   force =    -0.00000000   -0.00000000   -0.06458842
     atom    6 type  2   force =     0.00000000    0.00000000   -0.06458842
     atom    7 type  1   force =     0.00000000    0.00000000    0.06246347
     atom    8 type  2   force =     0.00000000    0.00000000   -0.01847169
     atom    9 type  2   force =    -0.00000000   -0.00000000   -0.01847169

     Total force =     0.235739     Total SCF correction =     0.000505


     Computing stress (Cartesian axis) and pressure


     negative rho (up, down):  4.057E-04 0.000E+00
          total   stress  (Ry/bohr**3)                   (kbar)     P=      132.61
   0.00129618  -0.00000000   0.00000000          190.67       -0.00        0.00
  -0.00000000   0.00129618   0.00000000           -0.00      190.67        0.00
  -0.00000000  -0.00000000   0.00011209           -0.00       -0.00       16.49

     Energy error            =      3.7E-02 Ry
     Gradient error          =      1.9E-01 Ry/Bohr

     number of scf cycles    =   2
     number of bfgs steps    =   1

     energy             old  =    -988.6709012868 Ry
     energy             new  =    -988.7075260841 Ry

     CASE: energy            _new < energy            _old


     WARNING: bfgs curvature condition failed, Theta= 0.608
     uphill step: resetting bfgs history

     new trust radius        =       0.1456723045 bohr
     new conv_thr            =       0.0000001000 Ry


ATOMIC_POSITIONS (angstrom)
Zr              -0.0000000000       -0.0000000000        9.9400838214
B                1.5902452000        0.9181284800       11.7681929075
B               -0.0000000200        1.8362569800       11.7681929075
Zr               0.0000000000        0.0000000000       13.6926490673
B                1.5902452000        0.9181284800       15.2638491216
B               -0.0000000200        1.8362569800       15.2638491216
Zr               0.0000000000        0.0000000000       17.1509941162
B                1.5902452000        0.9181284800       18.8489984684
B               -0.0000000200        1.8362569800       18.8489984684



     Writing config-only to output data dir ./pwscf.save/ :
     XML data file
     NEW-OLD atomic charge density approx. for the potential

     negative rho (up, down):  3.785E-04 0.000E+00

     total cpu time spent up to now is       52.4 secs

     per-process dynamical memory:   278.6 Mb

     Self-consistent Calculation

     iteration #  1     ecut=    50.00 Ry     beta= 0.70
     Davidson diagonalization with overlap
     ethr =  1.00E-06,  avg # of iterations = 15.0

     negative rho (up, down):  3.986E-04 0.000E+00

     total cpu time spent up to now is       53.4 secs

     total energy              =    -988.47859320 Ry
     estimated scf accuracy    <       0.32563529 Ry

     iteration #  2     ecut=    50.00 Ry     beta= 0.70
     Davidson diagonalization with overlap
     ethr =  6.03E-04,  avg # of iterations = 15.0

     negative rho (up, down):  1.034E-03 0.000E+00

     total cpu time spent up to now is       54.3 secs

     total energy              =    -983.72800510 Ry
     estimated scf accuracy    <     493.52755713 Ry

     iteration #  3     ecut=    50.00 Ry     beta= 0.70
     Davidson diagonalization with overlap
     ethr =  6.03E-04,  avg # of iterations = 10.0

     negative rho (up, down):  3.919E-04 0.000E+00

     total cpu time spent up to now is       55.2 secs

     total energy              =    -988.46789442 Ry
     estimated scf accuracy    <      10.58479833 Ry

     iteration #  4     ecut=    50.00 Ry     beta= 0.70
     Davidson diagonalization with overlap
     ethr =  6.03E-04,  avg # of iterations = 10.0

     negative rho (up, down):  3.270E-04 0.000E+00

     total cpu time spent up to now is       56.0 secs

     total energy              =    -988.72822587 Ry
     estimated scf accuracy    <       2.23324303 Ry

     iteration #  5     ecut=    50.00 Ry     beta= 0.70
     Davidson diagonalization with overlap
     ethr =  6.03E-04,  avg # of iterations =  5.0

     negative rho (up, down):  2.567E-04 0.000E+00

     total cpu time spent up to now is       56.8 secs

     total energy              =    -988.73949134 Ry
     estimated scf accuracy    <       0.51176263 Ry

     iteration #  6     ecut=    50.00 Ry     beta= 0.70
     Davidson diagonalization with overlap
     ethr =  6.03E-04,  avg # of iterations =  2.0

     negative rho (up, down):  3.145E-04 0.000E+00

     total cpu time spent up to now is       57.6 secs

     total energy              =    -988.74785997 Ry
     estimated scf accuracy    <       0.81953648 Ry

     iteration #  7     ecut=    50.00 Ry     beta= 0.70
     Davidson diagonalization with overlap
     ethr =  6.03E-04,  avg # of iterations =  1.0

     negative rho (up, down):  2.587E-03 0.000E+00

     total cpu time spent up to now is       58.3 secs

     total energy              =    -988.75204174 Ry
     estimated scf accuracy    <       0.00692260 Ry

     iteration #  8     ecut=    50.00 Ry     beta= 0.70
     Davidson diagonalization with overlap
     ethr =  1.28E-05,  avg # of iterations =  8.0

     negative rho (up, down):  2.994E-04 0.000E+00

     total cpu time spent up to now is       59.1 secs

     total energy              =    -988.75349100 Ry
     estimated scf accuracy    <       0.36168676 Ry

     iteration #  9     ecut=    50.00 Ry     beta= 0.70
     Davidson diagonalization with overlap
     ethr =  1.28E-05,  avg # of iterations =  5.0

     negative rho (up, down):  2.888E-04 0.000E+00

     total cpu time spent up to now is       59.9 secs

     total energy              =    -988.75424025 Ry
     estimated scf accuracy    <       0.01111876 Ry

     iteration # 10     ecut=    50.00 Ry     beta= 0.70
     Davidson diagonalization with overlap
     ethr =  1.28E-05,  avg # of iterations =  2.0

     negative rho (up, down):  2.715E-04 0.000E+00

     total cpu time spent up to now is       60.6 secs

     total energy              =    -988.75401476 Ry
     estimated scf accuracy    <       0.00455310 Ry

     iteration # 11     ecut=    50.00 Ry     beta= 0.70
     Davidson diagonalization with overlap
     ethr =  8.43E-06,  avg # of iterations =  7.0

     negative rho (up, down):  3.217E-04 0.000E+00

     total cpu time spent up to now is       61.4 secs

     total energy              =    -988.75433119 Ry
     estimated scf accuracy    <       0.00667450 Ry

     iteration # 12     ecut=    50.00 Ry     beta= 0.70
     Davidson diagonalization with overlap
     ethr =  8.43E-06,  avg # of iterations =  1.0

     negative rho (up, down):  3.818E-04 0.000E+00

     total cpu time spent up to now is       62.2 secs

     total energy              =    -988.75436826 Ry
     estimated scf accuracy    <       0.00034784 Ry

     iteration # 13     ecut=    50.00 Ry     beta= 0.70
     Davidson diagonalization with overlap
     ethr =  6.44E-07,  avg # of iterations =  7.0

     negative rho (up, down):  3.843E-04 0.000E+00

     total cpu time spent up to now is       63.0 secs

     total energy              =    -988.75439349 Ry
     estimated scf accuracy    <       0.00036042 Ry

     iteration # 14     ecut=    50.00 Ry     beta= 0.70
     Davidson diagonalization with overlap
     ethr =  6.44E-07,  avg # of iterations =  1.0

     negative rho (up, down):  3.875E-04 0.000E+00

     total cpu time spent up to now is       63.7 secs

     total energy              =    -988.75439399 Ry
     estimated scf accuracy    <       0.00005413 Ry

     iteration # 15     ecut=    50.00 Ry     beta= 0.70
     Davidson diagonalization with overlap
     ethr =  1.00E-07,  avg # of iterations =  2.0

     negative rho (up, down):  3.923E-04 0.000E+00

     total cpu time spent up to now is       64.5 secs

     total energy              =    -988.75439429 Ry
     estimated scf accuracy    <       0.00004962 Ry

     iteration # 16     ecut=    50.00 Ry     beta= 0.70
     Davidson diagonalization with overlap
     ethr =  9.19E-08,  avg # of iterations =  1.0

     negative rho (up, down):  3.903E-04 0.000E+00

     total cpu time spent up to now is       65.3 secs

     total energy              =    -988.75439331 Ry
     estimated scf accuracy    <       0.00006411 Ry

     iteration # 17     ecut=    50.00 Ry     beta= 0.70
     Davidson diagonalization with overlap
     ethr =  9.19E-08,  avg # of iterations =  2.0

     negative rho (up, down):  3.949E-04 0.000E+00

     total cpu time spent up to now is       66.0 secs

     total energy              =    -988.75439322 Ry
     estimated scf accuracy    <       0.00000909 Ry

     iteration # 18     ecut=    50.00 Ry     beta= 0.70
     Davidson diagonalization with overlap
     ethr =  1.68E-08,  avg # of iterations =  8.0

     negative rho (up, down):  3.948E-04 0.000E+00

     total cpu time spent up to now is       66.8 secs

     total energy              =    -988.75439461 Ry
     estimated scf accuracy    <       0.00001593 Ry

     iteration # 19     ecut=    50.00 Ry     beta= 0.70
     Davidson diagonalization with overlap
     ethr =  1.68E-08,  avg # of iterations =  1.0

     negative rho (up, down):  3.958E-04 0.000E+00

     total cpu time spent up to now is       67.6 secs

     total energy              =    -988.75439451 Ry
     estimated scf accuracy    <       0.00000895 Ry

     iteration # 20     ecut=    50.00 Ry     beta= 0.70
     Davidson diagonalization with overlap
     ethr =  1.66E-08,  avg # of iterations =  1.0

     negative rho (up, down):  3.957E-04 0.000E+00

     total cpu time spent up to now is       68.3 secs

     total energy              =    -988.75439446 Ry
     estimated scf accuracy    <       0.00000466 Ry

     iteration # 21     ecut=    50.00 Ry     beta= 0.70
     Davidson diagonalization with overlap
     ethr =  8.62E-09,  avg # of iterations =  6.0

     negative rho (up, down):  3.954E-04 0.000E+00

     total cpu time spent up to now is       69.1 secs

     total energy              =    -988.75439460 Ry
     estimated scf accuracy    <       0.00000016 Ry

     iteration # 22     ecut=    50.00 Ry     beta= 0.70
     Davidson diagonalization with overlap
     ethr =  2.91E-10,  avg # of iterations =  4.0

     negative rho (up, down):  3.955E-04 0.000E+00

     total cpu time spent up to now is       69.9 secs

     End of self-consistent calculation

          k = 0.0000 0.0000 0.0000 ( 10215 PWs)   bands (ev):

   -47.5796 -46.4049 -46.3910 -25.6664 -25.2400 -25.2400 -25.0663 -24.7924
   -24.1893 -24.1893 -24.0361 -24.0361 -11.1752 -10.2499  -8.8715  -5.0241
    -3.3677  -1.8363  -1.1624  -1.1624  -0.3178  -0.3178   0.2198   0.7311
     0.7311   1.3372   2.1625   2.1625   2.1681   2.8644   2.8644   3.0583

     the Fermi energy is     2.1229 ev

!    total energy              =    -988.75439458 Ry
     total all-electron energy =    -21889.357397 Ry
     estimated scf accuracy    <       0.00000002 Ry
     smearing contrib. (-TS)   =      -0.01542028 Ry
     internal energy E=F+TS    =    -988.73897431 Ry

     The total energy is F=E-TS. E is the sum of the following terms:
     one-electron contribution =   -4257.42988548 Ry
     hartree contribution      =    2136.33346026 Ry
     xc contribution           =     -71.93032246 Ry
     ewald contribution        =    1865.55481730 Ry
     one-center paw contrib.   =    -661.26704392 Ry

     convergence has been achieved in  22 iterations

     negative rho (up, down):  3.955E-04 0.000E+00

     Forces acting on atoms (cartesian axes, Ry/au):

     atom    1 type  1   force =     0.00000000    0.00000000   -0.07927625
     atom    2 type  2   force =     0.00000000    0.00000000   -0.01342979
     atom    3 type  2   force =     0.00000000    0.00000000   -0.01342979
     atom    4 type  1   force =     0.00000000    0.00000000    0.24839196
     atom    5 type  2   force =    -0.00000000   -0.00000000   -0.07842131
     atom    6 type  2   force =    -0.00000000   -0.00000000   -0.07842131
     atom    7 type  1   force =     0.00000000    0.00000000    0.05178943
     atom    8 type  2   force =    -0.00000000   -0.00000000   -0.01860146
     atom    9 type  2   force =    -0.00000000    0.00000000   -0.01860146

     Total force =     0.289859     Total SCF correction =     0.000725


     Computing stress (Cartesian axis) and pressure


     negative rho (up, down):  3.955E-04 0.000E+00
          total   stress  (Ry/bohr**3)                   (kbar)     P=      129.50
   0.00127297  -0.00000000  -0.00000000          187.26       -0.00       -0.00
  -0.00000000   0.00127297  -0.00000000           -0.00      187.26       -0.00
   0.00000000   0.00000000   0.00009497            0.00        0.00       13.97

     Energy error            =      4.7E-02 Ry
     Gradient error          =      2.5E-01 Ry/Bohr

     number of scf cycles    =   3
     number of bfgs steps    =   2

     energy             old  =    -988.7075260841 Ry
     energy             new  =    -988.7543945849 Ry

     CASE: energy            _new < energy            _old


     WARNING: bfgs curvature condition failed, Theta= 0.618
     uphill step: resetting bfgs history

     new trust radius        =       0.2185084568 bohr
     new conv_thr            =       0.0000001000 Ry


ATOMIC_POSITIONS (angstrom)
Zr              -0.0000000000       -0.0000000000        9.9031796931
B                1.5902452000        0.9181284800       11.7619411650
B               -0.0000000200        1.8362569800       11.7619411650
Zr               0.0000000000        0.0000000000       13.8082787630
B                1.5902452000        0.9181284800       15.2273429769
B               -0.0000000200        1.8362569800       15.2273429769
Zr               0.0000000000        0.0000000000       17.1751027719
B                1.5902452000        0.9181284800       18.8403392440
B               -0.0000000200        1.8362569800       18.8403392440



     Writing config-only to output data dir ./pwscf.save/ :
     XML data file
     NEW-OLD atomic charge density approx. for the potential

     negative rho (up, down):  3.559E-04 0.000E+00

     total cpu time spent up to now is       72.9 secs

     per-process dynamical memory:   278.6 Mb

     Self-consistent Calculation

     iteration #  1     ecut=    50.00 Ry     beta= 0.70
     Davidson diagonalization with overlap
     ethr =  1.00E-06,  avg # of iterations = 14.0

     negative rho (up, down):  3.937E-04 0.000E+00

     total cpu time spent up to now is       73.9 secs

     total energy              =    -987.98978272 Ry
     estimated scf accuracy    <       0.99212017 Ry

     iteration #  2     ecut=    50.00 Ry     beta= 0.70
     Davidson diagonalization with overlap
     ethr =  1.84E-03,  avg # of iterations = 11.0

     negative rho (up, down):  8.943E-04 0.000E+00

     total cpu time spent up to now is       74.8 secs

     total energy              =    -975.66638008 Ry
     estimated scf accuracy    <     984.32536315 Ry

     iteration #  3     ecut=    50.00 Ry     beta= 0.70
     Davidson diagonalization with overlap
     ethr =  1.84E-03,  avg # of iterations = 15.0

     negative rho (up, down):  2.822E-04 0.000E+00

     total cpu time spent up to now is       75.8 secs

     total energy              =    -988.60249778 Ry
     estimated scf accuracy    <      10.30027167 Ry

     iteration #  4     ecut=    50.00 Ry     beta= 0.70
     Davidson diagonalization with overlap
     ethr =  1.84E-03,  avg # of iterations =  6.0

     negative rho (up, down):  2.675E-04 0.000E+00

     total cpu time spent up to now is       76.6 secs

     total energy              =    -988.77208836 Ry
     estimated scf accuracy    <       5.38715223 Ry

     iteration #  5     ecut=    50.00 Ry     beta= 0.70
     Davidson diagonalization with overlap
     ethr =  1.84E-03,  avg # of iterations =  3.0

     negative rho (up, down):  2.001E-04 0.000E+00

     total cpu time spent up to now is       77.4 secs

     total energy              =    -988.81701451 Ry
     estimated scf accuracy    <       0.06763917 Ry

     iteration #  6     ecut=    50.00 Ry     beta= 0.70
     Davidson diagonalization with overlap
     ethr =  1.25E-04,  avg # of iterations =  7.0

     negative rho (up, down):  2.261E-04 0.000E+00

     total cpu time spent up to now is       78.2 secs

     total energy              =    -988.82543529 Ry
     estimated scf accuracy    <       1.34955219 Ry

     iteration #  7     ecut=    50.00 Ry     beta= 0.70
     Davidson diagonalization with overlap
     ethr =  1.25E-04,  avg # of iterations =  2.0

     negative rho (up, down):  2.019E-04 0.000E+00

     total cpu time spent up to now is       78.9 secs

     total energy              =    -988.83494888 Ry
     estimated scf accuracy    <       0.41648820 Ry

     iteration #  8     ecut=    50.00 Ry     beta= 0.70
     Davidson diagonalization with overlap
     ethr =  1.25E-04,  avg # of iterations =  1.0

     negative rho (up, down):  2.133E-04 0.000E+00

     total cpu time spent up to now is       79.7 secs

     total energy              =    -988.83625830 Ry
     estimated scf accuracy    <       0.02912643 Ry

     iteration #  9     ecut=    50.00 Ry     beta= 0.70
     Davidson diagonalization with overlap
     ethr =  5.39E-05,  avg # of iterations =  1.0

     negative rho (up, down):  1.981E-04 0.000E+00

     total cpu time spent up to now is       80.4 secs

     total energy              =    -988.83494409 Ry
     estimated scf accuracy    <       0.23538352 Ry

     iteration # 10     ecut=    50.00 Ry     beta= 0.70
     Davidson diagonalization with overlap
     ethr =  5.39E-05,  avg # of iterations =  1.0

     negative rho (up, down):  2.029E-04 0.000E+00

     total cpu time spent up to now is       81.2 secs

     total energy              =    -988.83608931 Ry
     estimated scf accuracy    <       0.02922607 Ry

     iteration # 11     ecut=    50.00 Ry     beta= 0.70
     Davidson diagonalization with overlap
     ethr =  5.39E-05,  avg # of iterations =  1.0

     negative rho (up, down):  2.418E-04 0.000E+00

     total cpu time spent up to now is       81.9 secs

     total energy              =    -988.83638570 Ry
     estimated scf accuracy    <       0.00202886 Ry

     iteration # 12     ecut=    50.00 Ry     beta= 0.70
     Davidson diagonalization with overlap
     ethr =  3.76E-06,  avg # of iterations =  6.0

     negative rho (up, down):  2.547E-04 0.000E+00

     total cpu time spent up to now is       82.7 secs

     total energy              =    -988.83628452 Ry
     estimated scf accuracy    <       0.03296895 Ry

     iteration # 13     ecut=    50.00 Ry     beta= 0.70
     Davidson diagonalization with overlap
     ethr =  3.76E-06,  avg # of iterations =  5.0

     negative rho (up, down):  3.522E-04 0.000E+00

     total cpu time spent up to now is       83.5 secs

     total energy              =    -988.83641359 Ry
     estimated scf accuracy    <       0.00059559 Ry

     iteration # 14     ecut=    50.00 Ry     beta= 0.70
     Davidson diagonalization with overlap
     ethr =  1.10E-06,  avg # of iterations =  6.0

     negative rho (up, down):  3.652E-04 0.000E+00

     total cpu time spent up to now is       84.3 secs

     total energy              =    -988.83652744 Ry
     estimated scf accuracy    <       0.00177063 Ry

     iteration # 15     ecut=    50.00 Ry     beta= 0.70
     Davidson diagonalization with overlap
     ethr =  1.10E-06,  avg # of iterations =  2.0

     negative rho (up, down):  3.628E-04 0.000E+00

     total cpu time spent up to now is       85.1 secs

     total energy              =    -988.83649572 Ry
     estimated scf accuracy    <       0.00100711 Ry

     iteration # 16     ecut=    50.00 Ry     beta= 0.70
     Davidson diagonalization with overlap
     ethr =  1.10E-06,  avg # of iterations =  3.0

     negative rho (up, down):  3.699E-04 0.000E+00

     total cpu time spent up to now is       85.8 secs

     total energy              =    -988.83650329 Ry
     estimated scf accuracy    <       0.00029365 Ry

     iteration # 17     ecut=    50.00 Ry     beta= 0.70
     Davidson diagonalization with overlap
     ethr =  5.44E-07,  avg # of iterations =  5.0

     negative rho (up, down):  3.754E-04 0.000E+00

     total cpu time spent up to now is       86.6 secs

     total energy              =    -988.83653031 Ry
     estimated scf accuracy    <       0.00004959 Ry

     iteration # 18     ecut=    50.00 Ry     beta= 0.70
     Davidson diagonalization with overlap
     ethr =  9.18E-08,  avg # of iterations =  5.0

     negative rho (up, down):  3.854E-04 0.000E+00

     total cpu time spent up to now is       87.4 secs

     total energy              =    -988.83652686 Ry
     estimated scf accuracy    <       0.00008233 Ry

     iteration # 19     ecut=    50.00 Ry     beta= 0.70
     Davidson diagonalization with overlap
     ethr =  9.18E-08,  avg # of iterations =  2.0

     negative rho (up, down):  3.898E-04 0.000E+00

     total cpu time spent up to now is       88.1 secs

     total energy              =    -988.83652778 Ry
     estimated scf accuracy    <       0.00002472 Ry

     iteration # 20     ecut=    50.00 Ry     beta= 0.70
     Davidson diagonalization with overlap
     ethr =  4.58E-08,  avg # of iterations =  3.0

     negative rho (up, down):  3.842E-04 0.000E+00

     total cpu time spent up to now is       88.9 secs

     total energy              =    -988.83652869 Ry
     estimated scf accuracy    <       0.00000828 Ry

     iteration # 21     ecut=    50.00 Ry     beta= 0.70
     Davidson diagonalization with overlap
     ethr =  1.53E-08,  avg # of iterations =  5.0

     negative rho (up, down):  3.849E-04 0.000E+00

     total cpu time spent up to now is       89.7 secs

     total energy              =    -988.83652921 Ry
     estimated scf accuracy    <       0.00000022 Ry

     iteration # 22     ecut=    50.00 Ry     beta= 0.70
     Davidson diagonalization with overlap
     ethr =  4.07E-10,  avg # of iterations =  6.0

     negative rho (up, down):  3.855E-04 0.000E+00

     total cpu time spent up to now is       90.5 secs

     total energy              =    -988.83652927 Ry
     estimated scf accuracy    <       0.00000128 Ry

     iteration # 23     ecut=    50.00 Ry     beta= 0.70
     Davidson diagonalization with overlap
     ethr =  4.07E-10,  avg # of iterations =  2.0

     negative rho (up, down):  3.856E-04 0.000E+00

     total cpu time spent up to now is       91.2 secs

     total energy              =    -988.83652926 Ry
     estimated scf accuracy    <       0.00000076 Ry

     iteration # 24     ecut=    50.00 Ry     beta= 0.70
     Davidson diagonalization with overlap
     ethr =  4.07E-10,  avg # of iterations =  5.0

     negative rho (up, down):  3.853E-04 0.000E+00

     total cpu time spent up to now is       92.0 secs

     total energy              =    -988.83652927 Ry
     estimated scf accuracy    <       0.00000015 Ry

     iteration # 25     ecut=    50.00 Ry     beta= 0.70
     Davidson diagonalization with overlap
     ethr =  2.86E-10,  avg # of iterations =  5.0

     negative rho (up, down):  3.854E-04 0.000E+00

     total cpu time spent up to now is       92.8 secs

     End of self-consistent calculation

          k = 0.0000 0.0000 0.0000 ( 10215 PWs)   bands (ev):

   -47.6789 -46.3032 -46.2469 -25.7824 -25.3164 -25.3164 -24.9927 -24.6913
   -24.1222 -24.1222 -23.8924 -23.8924 -11.1957 -10.2556  -8.7915  -5.1131
    -3.4865  -1.9212  -1.6037  -1.6037  -0.2299  -0.2299   0.1383   0.6600
     0.6600   1.5424   2.0104   2.0104   2.0238   2.9531   2.9531   3.4404

     the Fermi energy is     1.9733 ev

!    total energy              =    -988.83652925 Ry
     total all-electron energy =    -21889.439532 Ry
     estimated scf accuracy    <       0.00000004 Ry
     smearing contrib. (-TS)   =      -0.01539361 Ry
     internal energy E=F+TS    =    -988.82113564 Ry

     The total energy is F=E-TS. E is the sum of the following terms:
     one-electron contribution =   -4244.35450929 Ry
     hartree contribution      =    2129.78032186 Ry
     xc contribution           =     -71.97116978 Ry
     ewald contribution        =    1858.99184229 Ry
     one-center paw contrib.   =    -661.26762072 Ry

     convergence has been achieved in  25 iterations

     negative rho (up, down):  3.854E-04 0.000E+00

     Forces acting on atoms (cartesian axes, Ry/au):

     atom    1 type  1   force =    -0.00000000   -0.00000000   -0.07247264
     atom    2 type  2   force =    -0.00000000    0.00000000   -0.02026048
     atom    3 type  2   force =     0.00000000    0.00000000   -0.02026048
     atom    4 type  1   force =     0.00000000    0.00000000    0.30943904
     atom    5 type  2   force =    -0.00000000    0.00000000   -0.10381451
     atom    6 type  2   force =    -0.00000000   -0.00000000   -0.10381451
     atom    7 type  1   force =     0.00000000    0.00000000    0.03010543
     atom    8 type  2   force =     0.00000000    0.00000000   -0.00946093
     atom    9 type  2   force =    -0.00000000   -0.00000000   -0.00946093

     Total force =     0.352797     Total SCF correction =     0.001064


     Computing stress (Cartesian axis) and pressure


     negative rho (up, down):  3.854E-04 0.000E+00
          total   stress  (Ry/bohr**3)                   (kbar)     P=      125.42
   0.00123841  -0.00000000   0.00000000          182.18       -0.00        0.00
  -0.00000000   0.00123841   0.00000000           -0.00      182.18        0.00
   0.00000000   0.00000000   0.00008086            0.00        0.00       11.90

     Energy error            =      8.2E-02 Ry
     Gradient error          =      3.1E-01 Ry/Bohr

     number of scf cycles    =   4
     number of bfgs steps    =   3

     energy             old  =    -988.7543945849 Ry
     energy             new  =    -988.8365292455 Ry

     CASE: energy            _new < energy            _old


     WARNING: bfgs curvature condition failed, Theta= 0.648
     uphill step: resetting bfgs history

     new trust radius        =       0.3094390419 bohr
     new conv_thr            =       0.0000001000 Ry


ATOMIC_POSITIONS (angstrom)
Zr              -0.0000000000       -0.0000000000        9.8648288244
B                1.5902452000        0.9181284800       11.7512197807
B               -0.0000000200        1.8362569800       11.7512197807
Zr               0.0000000000        0.0000000000       13.9720268521
B                1.5902452000        0.9181284800       15.1724067055
B               -0.0000000200        1.8362569800       15.1724067055
Zr               0.0000000000        0.0000000000       17.1910338785
B                1.5902452000        0.9181284800       18.8353327363
B               -0.0000000200        1.8362569800       18.8353327363



     Writing config-only to output data dir ./pwscf.save/ :
     XML data file
     NEW-OLD atomic charge density approx. for the potential

     negative rho (up, down):  3.733E-04 0.000E+00

     total cpu time spent up to now is       95.8 secs

     per-process dynamical memory:   278.6 Mb

     Self-consistent Calculation

     iteration #  1     ecut=    50.00 Ry     beta= 0.70
     Davidson diagonalization with overlap
     ethr =  1.00E-06,  avg # of iterations = 15.0

     negative rho (up, down):  4.261E-04 0.000E+00

     total cpu time spent up to now is       96.9 secs

     total energy              =    -986.18289353 Ry
     estimated scf accuracy    <       3.30448634 Ry

     iteration #  2     ecut=    50.00 Ry     beta= 0.70
     Davidson diagonalization with overlap
     ethr =  6.12E-03,  avg # of iterations = 11.0

     total cpu time spent up to now is       97.8 secs

     total energy              =    -959.75060538 Ry
     estimated scf accuracy    <    1194.05866952 Ry

     iteration #  3     ecut=    50.00 Ry     beta= 0.70
     Davidson diagonalization with overlap
     ethr =  6.12E-03,  avg # of iterations = 10.0

     total cpu time spent up to now is       98.7 secs

     total energy              =    -984.41357781 Ry
     estimated scf accuracy    <     223.21354230 Ry

     iteration #  4     ecut=    50.00 Ry     beta= 0.70
     Davidson diagonalization with overlap
     ethr =  6.12E-03,  avg # of iterations =  4.0

     total cpu time spent up to now is       99.5 secs

     total energy              =    -986.50227578 Ry
     estimated scf accuracy    <     130.19634894 Ry

     iteration #  5     ecut=    50.00 Ry     beta= 0.70
     Davidson diagonalization with overlap
     ethr =  6.12E-03,  avg # of iterations =  6.0

     total cpu time spent up to now is      100.3 secs

     total energy              =    -988.91794499 Ry
     estimated scf accuracy    <       6.41530947 Ry

     iteration #  6     ecut=    50.00 Ry     beta= 0.70
     Davidson diagonalization with overlap
     ethr =  6.12E-03,  avg # of iterations =  1.0

     negative rho (up, down):  8.957E-05 0.000E+00

     total cpu time spent up to now is      101.1 secs

     total energy              =    -988.82629123 Ry
     estimated scf accuracy    <       3.32598158 Ry

     iteration #  7     ecut=    50.00 Ry     beta= 0.70
     Davidson diagonalization with overlap
     ethr =  6.12E-03,  avg # of iterations =  6.0

     total cpu time spent up to now is      101.8 secs

     total energy              =    -988.98277578 Ry
     estimated scf accuracy    <       1.50703519 Ry

     iteration #  8     ecut=    50.00 Ry     beta= 0.70
     Davidson diagonalization with overlap
     ethr =  2.79E-03,  avg # of iterations =  1.0

     total cpu time spent up to now is      102.6 secs

     total energy              =    -988.96340383 Ry
     estimated scf accuracy    <       1.44884727 Ry

     iteration #  9     ecut=    50.00 Ry     beta= 0.70
     Davidson diagonalization with overlap
     ethr =  2.68E-03,  avg # of iterations =  1.0

     total cpu time spent up to now is      103.3 secs

     total energy              =    -988.97801460 Ry
     estimated scf accuracy    <       5.31048848 Ry

     iteration # 10     ecut=    50.00 Ry     beta= 0.70
     Davidson diagonalization with overlap
     ethr =  2.68E-03,  avg # of iterations =  1.0

     negative rho (up, down):  1.778E-02 0.000E+00

     total cpu time spent up to now is      104.1 secs

     total energy              =    -988.93664576 Ry
     estimated scf accuracy    <       1.44936599 Ry

     iteration # 11     ecut=    50.00 Ry     beta= 0.70
     Davidson diagonalization with overlap
     ethr =  2.68E-03,  avg # of iterations =  2.0

     negative rho (up, down):  1.013E-03 0.000E+00

     total cpu time spent up to now is      104.8 secs

     total energy              =    -988.94519963 Ry
     estimated scf accuracy    <       3.86947484 Ry

     iteration # 12     ecut=    50.00 Ry     beta= 0.70
     Davidson diagonalization with overlap
     ethr =  2.68E-03,  avg # of iterations =  1.0

     negative rho (up, down):  2.274E-04 0.000E+00

     total cpu time spent up to now is      105.6 secs

     total energy              =    -988.97600594 Ry
     estimated scf accuracy    <       0.83509379 Ry

     iteration # 13     ecut=    50.00 Ry     beta= 0.70
     Davidson diagonalization with overlap
     ethr =  1.55E-03,  avg # of iterations =  2.0

     negative rho (up, down):  1.782E-04 0.000E+00

     total cpu time spent up to now is      106.3 secs

     total energy              =    -988.97627904 Ry
     estimated scf accuracy    <       0.58407105 Ry

     iteration # 14     ecut=    50.00 Ry     beta= 0.70
     Davidson diagonalization with overlap
     ethr =  1.08E-03,  avg # of iterations =  6.0

     negative rho (up, down):  1.109E-04 0.000E+00

     total cpu time spent up to now is      107.1 secs

     total energy              =    -988.99091760 Ry
     estimated scf accuracy    <       1.28858241 Ry

     iteration # 15     ecut=    50.00 Ry     beta= 0.70
     Davidson diagonalization with overlap
     ethr =  1.08E-03,  avg # of iterations =  1.0

     negative rho (up, down):  1.850E-04 0.000E+00

     total cpu time spent up to now is      107.9 secs

     total energy              =    -988.98384079 Ry
     estimated scf accuracy    <       1.02716781 Ry

     iteration # 16     ecut=    50.00 Ry     beta= 0.70
     Davidson diagonalization with overlap
     ethr =  1.08E-03,  avg # of iterations =  1.0

     negative rho (up, down):  1.853E-04 0.000E+00

     total cpu time spent up to now is      108.6 secs

     total energy              =    -988.97756620 Ry
     estimated scf accuracy    <       0.68380211 Ry

     iteration # 17     ecut=    50.00 Ry     beta= 0.70
     Davidson diagonalization with overlap
     ethr =  1.08E-03,  avg # of iterations =  1.0

     negative rho (up, down):  4.447E-04 0.000E+00

     total cpu time spent up to now is      109.4 secs

     total energy              =    -988.97966604 Ry
     estimated scf accuracy    <       0.51087045 Ry

     iteration # 18     ecut=    50.00 Ry     beta= 0.70
     Davidson diagonalization with overlap
     ethr =  9.46E-04,  avg # of iterations =  1.0

     negative rho (up, down):  3.986E-04 0.000E+00

     total cpu time spent up to now is      110.1 secs

     total energy              =    -988.98317039 Ry
     estimated scf accuracy    <       0.10685210 Ry

     iteration # 19     ecut=    50.00 Ry     beta= 0.70
     Davidson diagonalization with overlap
     ethr =  1.98E-04,  avg # of iterations =  2.0

     negative rho (up, down):  3.808E-04 0.000E+00

     total cpu time spent up to now is      110.9 secs

     total energy              =    -988.98314449 Ry
     estimated scf accuracy    <       0.11979131 Ry

     iteration # 20     ecut=    50.00 Ry     beta= 0.70
     Davidson diagonalization with overlap
     ethr =  1.98E-04,  avg # of iterations =  2.0

     negative rho (up, down):  3.763E-04 0.000E+00

     total cpu time spent up to now is      111.6 secs

     total energy              =    -988.98303267 Ry
     estimated scf accuracy    <       0.08706766 Ry

     iteration # 21     ecut=    50.00 Ry     beta= 0.70
     Davidson diagonalization with overlap
     ethr =  1.61E-04,  avg # of iterations =  6.0

     negative rho (up, down):  3.599E-04 0.000E+00

     total cpu time spent up to now is      112.4 secs

     total energy              =    -988.98314647 Ry
     estimated scf accuracy    <       0.03751710 Ry

     iteration # 22     ecut=    50.00 Ry     beta= 0.70
     Davidson diagonalization with overlap
     ethr =  6.95E-05,  avg # of iterations =  1.0

     negative rho (up, down):  3.624E-04 0.000E+00

     total cpu time spent up to now is      113.2 secs

     total energy              =    -988.98313530 Ry
     estimated scf accuracy    <       0.05318297 Ry

     iteration # 23     ecut=    50.00 Ry     beta= 0.70
     Davidson diagonalization with overlap
     ethr =  6.95E-05,  avg # of iterations =  1.0

     negative rho (up, down):  3.518E-04 0.000E+00

     total cpu time spent up to now is      113.9 secs

     total energy              =    -988.98309768 Ry
     estimated scf accuracy    <       0.04323412 Ry

     iteration # 24     ecut=    50.00 Ry     beta= 0.70
     Davidson diagonalization with overlap
     ethr =  6.95E-05,  avg # of iterations =  1.0

     negative rho (up, down):  3.745E-04 0.000E+00

     total cpu time spent up to now is      114.7 secs

     total energy              =    -988.98295659 Ry
     estimated scf accuracy    <       0.02864510 Ry

     iteration # 25     ecut=    50.00 Ry     beta= 0.70
     Davidson diagonalization with overlap
     ethr =  5.30E-05,  avg # of iterations =  1.0

     negative rho (up, down):  3.817E-04 0.000E+00

     total cpu time spent up to now is      115.4 secs

     total energy              =    -988.98304869 Ry
     estimated scf accuracy    <       0.00071998 Ry

     iteration # 26     ecut=    50.00 Ry     beta= 0.70
     Davidson diagonalization with overlap
     ethr =  1.33E-06,  avg # of iterations =  5.0

     negative rho (up, down):  3.843E-04 0.000E+00

     total cpu time spent up to now is      116.2 secs

     total energy              =    -988.98307251 Ry
     estimated scf accuracy    <       0.00022422 Ry

     iteration # 27     ecut=    50.00 Ry     beta= 0.70
     Davidson diagonalization with overlap
     ethr =  4.15E-07,  avg # of iterations =  1.0

     negative rho (up, down):  3.890E-04 0.000E+00

     total cpu time spent up to now is      116.9 secs

     total energy              =    -988.98307250 Ry
     estimated scf accuracy    <       0.00002283 Ry

     iteration # 28     ecut=    50.00 Ry     beta= 0.70
     Davidson diagonalization with overlap
     ethr =  4.23E-08,  avg # of iterations =  2.0

     negative rho (up, down):  3.909E-04 0.000E+00

     total cpu time spent up to now is      117.7 secs

     total energy              =    -988.98307285 Ry
     estimated scf accuracy    <       0.00000328 Ry

     iteration # 29     ecut=    50.00 Ry     beta= 0.70
     Davidson diagonalization with overlap
     ethr =  6.07E-09,  avg # of iterations =  6.0

     negative rho (up, down):  3.912E-04 0.000E+00

     total cpu time spent up to now is      118.5 secs

     total energy              =    -988.98307311 Ry
     estimated scf accuracy    <       0.00000096 Ry

     iteration # 30     ecut=    50.00 Ry     beta= 0.70
     Davidson diagonalization with overlap
     ethr =  1.77E-09,  avg # of iterations =  2.0

     negative rho (up, down):  3.912E-04 0.000E+00

     total cpu time spent up to now is      119.2 secs

     total energy              =    -988.98307309 Ry
     estimated scf accuracy    <       0.00000092 Ry

     iteration # 31     ecut=    50.00 Ry     beta= 0.70
     Davidson diagonalization with overlap
     ethr =  1.70E-09,  avg # of iterations =  2.0

     negative rho (up, down):  3.916E-04 0.000E+00

     total cpu time spent up to now is      120.0 secs

     total energy              =    -988.98307304 Ry
     estimated scf accuracy    <       0.00000112 Ry

     iteration # 32     ecut=    50.00 Ry     beta= 0.70
     Davidson diagonalization with overlap
     ethr =  1.70E-09,  avg # of iterations =  4.0

     negative rho (up, down):  3.917E-04 0.000E+00

     total cpu time spent up to now is      120.8 secs

     total energy              =    -988.98307310 Ry
     estimated scf accuracy    <       0.00000077 Ry

     iteration # 33     ecut=    50.00 Ry     beta= 0.70
     Davidson diagonalization with overlap
     ethr =  1.43E-09,  avg # of iterations =  1.0

     negative rho (up, down):  3.917E-04 0.000E+00

     total cpu time spent up to now is      121.5 secs

     total energy              =    -988.98307308 Ry
     estimated scf accuracy    <       0.00000027 Ry

     iteration # 34     ecut=    50.00 Ry     beta= 0.70
     Davidson diagonalization with overlap
     ethr =  5.04E-10,  avg # of iterations =  4.0

     negative rho (up, down):  3.916E-04 0.000E+00

     total cpu time spent up to now is      122.3 secs

     End of self-consistent calculation

          k = 0.0000 0.0000 0.0000 ( 10215 PWs)   bands (ev):

   -47.5008 -45.9564 -45.7911 -25.6371 -25.1137 -25.1137 -24.6823 -24.2502
   -23.6968 -23.6968 -23.6385 -23.6385 -10.8489  -9.9576  -8.7151  -5.0422
    -3.5120  -2.1757  -2.1757  -1.9606   0.1608   0.1608   0.1650   0.6143
     0.6143   1.9500   2.0329   2.0329   2.0829   3.2793   3.2793   3.7626

     the Fermi energy is     2.0257 ev

!    total energy              =    -988.98307306 Ry
     total all-electron energy =    -21889.586076 Ry
     estimated scf accuracy    <       0.00000004 Ry
     smearing contrib. (-TS)   =      -0.02011921 Ry
     internal energy E=F+TS    =    -988.96295385 Ry

     The total energy is F=E-TS. E is the sum of the following terms:
     one-electron contribution =   -4237.92965548 Ry
     hartree contribution      =    2126.97720956 Ry
     xc contribution           =     -72.10387450 Ry
     ewald contribution        =    1855.35959758 Ry
     one-center paw contrib.   =    -661.26623100 Ry

     convergence has been achieved in  34 iterations

     negative rho (up, down):  3.916E-04 0.000E+00

     Forces acting on atoms (cartesian axes, Ry/au):

     atom    1 type  1   force =     0.00000000    0.00000000   -0.05401582
     atom    2 type  2   force =    -0.00000000   -0.00000000   -0.02363604
     atom    3 type  2   force =    -0.00000000   -0.00000000   -0.02363604
     atom    4 type  1   force =     0.00000000    0.00000000    0.40963483
     atom    5 type  2   force =     0.00000000    0.00000000   -0.16198731
     atom    6 type  2   force =    -0.00000000    0.00000000   -0.16198731
     atom    7 type  1   force =     0.00000000    0.00000000    0.04979978
     atom    8 type  2   force =     0.00000000    0.00000000   -0.01708605
     atom    9 type  2   force =     0.00000000   -0.00000000   -0.01708605

     Total force =     0.476843     Total SCF correction =     0.000693


     Computing stress (Cartesian axis) and pressure


     negative rho (up, down):  3.916E-04 0.000E+00
          total   stress  (Ry/bohr**3)                   (kbar)     P=      122.18
   0.00128584  -0.00000000  -0.00000000          189.15       -0.00       -0.00
  -0.00000000   0.00128584  -0.00000000           -0.00      189.15       -0.00
   0.00000000   0.00000000  -0.00008003            0.00        0.00      -11.77

     Energy error            =      1.5E-01 Ry
     Gradient error          =      4.1E-01 Ry/Bohr

     number of scf cycles    =   5
     number of bfgs steps    =   4

     energy             old  =    -988.8365292455 Ry
     energy             new  =    -988.9830730623 Ry

     CASE: energy            _new < energy            _old


     WARNING: bfgs curvature condition failed, Theta= 0.596
     uphill step: resetting bfgs history

     new trust radius        =       0.3403829461 bohr
     new conv_thr            =       0.0000001000 Ry


ATOMIC_POSITIONS (angstrom)
Zr              -0.0000000000       -0.0000000000        9.8410772167
B                1.5902452000        0.9181284800       11.7408266409
B               -0.0000000200        1.8362569800       11.7408266409
Zr               0.0000000000        0.0000000000       14.1521497502
B                1.5902452000        0.9181284800       15.1011783311
B               -0.0000000200        1.8362569800       15.1011783311
Zr               0.0000000000        0.0000000000       17.2129316283
B                1.5902452000        0.9181284800       18.8278197305
B               -0.0000000200        1.8362569800       18.8278197305



     Writing config-only to output data dir ./pwscf.save/ :
     XML data file
     NEW-OLD atomic charge density approx. for the potential

     negative rho (up, down):  3.815E-04 0.000E+00

     total cpu time spent up to now is      125.4 secs

     per-process dynamical memory:   278.6 Mb

     Self-consistent Calculation

     iteration #  1     ecut=    50.00 Ry     beta= 0.70
     Davidson diagonalization with overlap
     ethr =  1.00E-06,  avg # of iterations = 13.0

     negative rho (up, down):  4.273E-04 0.000E+00

     total cpu time spent up to now is      126.5 secs

     total energy              =    -986.45903105 Ry
     estimated scf accuracy    <       3.18870398 Ry

     iteration #  2     ecut=    50.00 Ry     beta= 0.70
     Davidson diagonalization with overlap
     ethr =  5.91E-03,  avg # of iterations = 11.0

     total cpu time spent up to now is      127.4 secs

     total energy              =    -960.38711744 Ry
     estimated scf accuracy    <    1171.48965599 Ry

     iteration #  3     ecut=    50.00 Ry     beta= 0.70
     Davidson diagonalization with overlap
     ethr =  5.91E-03,  avg # of iterations = 10.0

     total cpu time spent up to now is      128.3 secs

     total energy              =    -984.42643487 Ry
     estimated scf accuracy    <     170.39053647 Ry

     iteration #  4     ecut=    50.00 Ry     beta= 0.70
     Davidson diagonalization with overlap
     ethr =  5.91E-03,  avg # of iterations =  5.0

     total cpu time spent up to now is      129.1 secs

     total energy              =    -985.14816662 Ry
     estimated scf accuracy    <     197.61274091 Ry

     iteration #  5     ecut=    50.00 Ry     beta= 0.70
     Davidson diagonalization with overlap
     ethr =  5.91E-03,  avg # of iterations =  6.0

     total cpu time spent up to now is      129.9 secs

     total energy              =    -989.08299652 Ry
     estimated scf accuracy    <       5.96979863 Ry

     iteration #  6     ecut=    50.00 Ry     beta= 0.70
     Davidson diagonalization with overlap
     ethr =  5.91E-03,  avg # of iterations =  1.0

     total cpu time spent up to now is      130.6 secs

     total energy              =    -989.11947278 Ry
     estimated scf accuracy    <       2.83972184 Ry

     iteration #  7     ecut=    50.00 Ry     beta= 0.70
     Davidson diagonalization with overlap
     ethr =  5.26E-03,  avg # of iterations =  1.0

     total cpu time spent up to now is      131.4 secs

     total energy              =    -989.11455961 Ry
     estimated scf accuracy    <       4.85978066 Ry

     iteration #  8     ecut=    50.00 Ry     beta= 0.70
     Davidson diagonalization with overlap
     ethr =  5.26E-03,  avg # of iterations =  1.0

     negative rho (up, down):  2.542E-08 0.000E+00

     total cpu time spent up to now is      132.1 secs

     total energy              =    -989.10929382 Ry
     estimated scf accuracy    <       0.92149144 Ry

     iteration #  9     ecut=    50.00 Ry     beta= 0.70
     Davidson diagonalization with overlap
     ethr =  1.71E-03,  avg # of iterations =  7.0

     total cpu time spent up to now is      132.9 secs

     total energy              =    -989.14503524 Ry
     estimated scf accuracy    <       1.07829878 Ry

     iteration # 10     ecut=    50.00 Ry     beta= 0.70
     Davidson diagonalization with overlap
     ethr =  1.71E-03,  avg # of iterations =  2.0

     total cpu time spent up to now is      133.7 secs

     total energy              =    -989.14270245 Ry
     estimated scf accuracy    <       0.67611465 Ry

     iteration # 11     ecut=    50.00 Ry     beta= 0.70
     Davidson diagonalization with overlap
     ethr =  1.25E-03,  avg # of iterations =  1.0

     negative rho (up, down):  5.515E-08 0.000E+00

     total cpu time spent up to now is      134.4 secs

     total energy              =    -989.15289016 Ry
     estimated scf accuracy    <       0.20439621 Ry

     iteration # 12     ecut=    50.00 Ry     beta= 0.70
     Davidson diagonalization with overlap
     ethr =  3.79E-04,  avg # of iterations =  5.0

     negative rho (up, down):  2.224E-06 0.000E+00

     total cpu time spent up to now is      135.2 secs

     total energy              =    -989.15586471 Ry
     estimated scf accuracy    <       0.38908955 Ry

     iteration # 13     ecut=    50.00 Ry     beta= 0.70
     Davidson diagonalization with overlap
     ethr =  3.79E-04,  avg # of iterations =  1.0

     negative rho (up, down):  1.089E-05 0.000E+00

     total cpu time spent up to now is      135.9 secs

     total energy              =    -989.15528063 Ry
     estimated scf accuracy    <       0.94284387 Ry

     iteration # 14     ecut=    50.00 Ry     beta= 0.70
     Davidson diagonalization with overlap
     ethr =  3.79E-04,  avg # of iterations =  1.0

     negative rho (up, down):  1.616E-04 0.000E+00

     total cpu time spent up to now is      136.7 secs

     total energy              =    -989.15847633 Ry
     estimated scf accuracy    <       0.01325089 Ry

     iteration # 15     ecut=    50.00 Ry     beta= 0.70
     Davidson diagonalization with overlap
     ethr =  2.45E-05,  avg # of iterations =  5.0

     negative rho (up, down):  1.767E-04 0.000E+00

     total cpu time spent up to now is      137.5 secs

     total energy              =    -989.15855091 Ry
     estimated scf accuracy    <       0.04939052 Ry

     iteration # 16     ecut=    50.00 Ry     beta= 0.70
     Davidson diagonalization with overlap
     ethr =  2.45E-05,  avg # of iterations =  2.0

     negative rho (up, down):  3.231E-04 0.000E+00

     total cpu time spent up to now is      138.2 secs

[...]

     iteration # 15     ecut=    50.00 Ry     beta= 0.70
     Davidson diagonalization with overlap
     ethr =  1.70E-11,  avg # of iterations =  5.0

     negative rho (up, down):  4.969E-04 0.000E+00

     total cpu time spent up to now is      732.0 secs

     total energy              =    -989.71349041 Ry
     estimated scf accuracy    <          8.4E-09 Ry

     iteration # 16     ecut=    50.00 Ry     beta= 0.70
     Davidson diagonalization with overlap
     ethr =  1.56E-11,  avg # of iterations =  1.0

     negative rho (up, down):  4.969E-04 0.000E+00

     total cpu time spent up to now is      732.8 secs

     total energy              =    -989.71349041 Ry
     estimated scf accuracy    <          6.1E-09 Ry

     iteration # 17     ecut=    50.00 Ry     beta= 0.70
     Davidson diagonalization with overlap
     ethr =  1.12E-11,  avg # of iterations =  1.0

     negative rho (up, down):  4.969E-04 0.000E+00

     total cpu time spent up to now is      733.7 secs

     total energy              =    -989.71349041 Ry
     estimated scf accuracy    <          3.5E-09 Ry

     iteration # 18     ecut=    50.00 Ry     beta= 0.70
     Davidson diagonalization with overlap
     ethr =  6.54E-12,  avg # of iterations =  1.0

     negative rho (up, down):  4.969E-04 0.000E+00

     total cpu time spent up to now is      734.5 secs

     total energy              =    -989.71349041 Ry
     estimated scf accuracy    <          3.1E-09 Ry

     iteration # 19     ecut=    50.00 Ry     beta= 0.70
     Davidson diagonalization with overlap
     ethr =  5.68E-12,  avg # of iterations =  5.0

     negative rho (up, down):  4.969E-04 0.000E+00

     total cpu time spent up to now is      735.3 secs

     End of self-consistent calculation

          k = 0.0000 0.0000 0.0000 ( 10215 PWs)   bands (ev):

   -46.5196 -44.5123 -44.3089 -24.7597 -24.0886 -24.0886 -23.4207 -22.8081
   -22.8081 -22.6723 -22.6723 -22.3690  -9.4241  -9.0921  -7.7349  -3.9219
    -3.8714  -3.8714  -3.2349  -3.2349  -2.8241  -2.6715   0.9457   1.2828
     1.2828   2.6723   2.6723   2.8347   4.4832   4.4832   4.7427   4.7427

     the Fermi energy is     2.7772 ev

!    total energy              =    -989.71349041 Ry
     total all-electron energy =    -21890.316493 Ry
     estimated scf accuracy    <          4.4E-10 Ry
     smearing contrib. (-TS)   =      -0.01094558 Ry
     internal energy E=F+TS    =    -989.70254483 Ry

     The total energy is F=E-TS. E is the sum of the following terms:
     one-electron contribution =   -4273.65123024 Ry
     hartree contribution      =    2146.43990883 Ry
     xc contribution           =     -73.25370831 Ry
     ewald contribution        =    1872.03138735 Ry
     one-center paw contrib.   =    -661.26890245 Ry

     convergence has been achieved in  19 iterations

     negative rho (up, down):  4.969E-04 0.000E+00

     Forces acting on atoms (cartesian axes, Ry/au):

     atom    1 type  1   force =     0.00000000    0.00000000   -0.00039675
     atom    2 type  2   force =     0.00000000    0.00000000    0.00002677
     atom    3 type  2   force =     0.00000000    0.00000000    0.00002677
     atom    4 type  1   force =    -0.00000000   -0.00000000    0.00180769
     atom    5 type  2   force =     0.00000000   -0.00000000   -0.00089495
     atom    6 type  2   force =     0.00000000    0.00000000   -0.00089495
     atom    7 type  1   force =     0.00000000    0.00000000    0.00086242
     atom    8 type  2   force =     0.00000000    0.00000000   -0.00026850
     atom    9 type  2   force =     0.00000000   -0.00000000   -0.00026850

     Total force =     0.002432     Total SCF correction =     0.000102


     Computing stress (Cartesian axis) and pressure


     negative rho (up, down):  4.969E-04 0.000E+00
          total   stress  (Ry/bohr**3)                   (kbar)     P=      154.89
   0.00158145   0.00000000   0.00000000          232.64        0.00        0.00
   0.00000000   0.00158145   0.00000000            0.00      232.64        0.00
   0.00000000   0.00000000  -0.00000413            0.00        0.00       -0.61

     Energy error            =      9.6E-06 Ry
     Gradient error          =      1.8E-03 Ry/Bohr

     number of scf cycles    =  32
     number of bfgs steps    =  31

     energy             old  =    -989.7134807931 Ry
     energy             new  =    -989.7134904112 Ry

     CASE: energy            _new < energy            _old

     new trust radius        =       0.0073153047 bohr
     new conv_thr            =       0.0000000010 Ry


ATOMIC_POSITIONS (angstrom)
Zr              -0.0000000000       -0.0000000000        9.7438095065
B                1.5902452000        0.9181284800       11.6175169711
B               -0.0000000200        1.8362569800       11.6175169711
Zr               0.0000000000        0.0000000000       14.7099571660
B                1.5902452000        0.9181284800       15.4439420467
B               -0.0000000200        1.8362569800       15.4439420467
Zr              -0.0000000000       -0.0000000000       17.5093207121
B                1.5902452000        0.9181284800       18.2299012899
B               -0.0000000200        1.8362569800       18.2299012899



     Writing config-only to output data dir ./pwscf.save/ :
     XML data file
     NEW-OLD atomic charge density approx. for the potential

     negative rho (up, down):  4.939E-04 0.000E+00

     total cpu time spent up to now is      738.6 secs

     per-process dynamical memory:   278.6 Mb

     Self-consistent Calculation

     iteration #  1     ecut=    50.00 Ry     beta= 0.70
     Davidson diagonalization with overlap
     ethr =  1.00E-06,  avg # of iterations =  3.0

     negative rho (up, down):  4.934E-04 0.000E+00

     total cpu time spent up to now is      739.5 secs

     total energy              =    -989.71224501 Ry
     estimated scf accuracy    <       0.00141070 Ry

     iteration #  2     ecut=    50.00 Ry     beta= 0.70
     Davidson diagonalization with overlap
     ethr =  2.61E-06,  avg # of iterations = 10.0

     negative rho (up, down):  5.225E-04 0.000E+00

     total cpu time spent up to now is      740.5 secs

     total energy              =    -989.70494887 Ry
     estimated scf accuracy    <       1.53647351 Ry

     iteration #  3     ecut=    50.00 Ry     beta= 0.70
     Davidson diagonalization with overlap
     ethr =  2.61E-06,  avg # of iterations = 13.0

     negative rho (up, down):  4.987E-04 0.000E+00

     total cpu time spent up to now is      741.4 secs

     total energy              =    -989.71322087 Ry
     estimated scf accuracy    <       0.08558021 Ry

     iteration #  4     ecut=    50.00 Ry     beta= 0.70
     Davidson diagonalization with overlap
     ethr =  2.61E-06,  avg # of iterations =  5.0

     negative rho (up, down):  4.950E-04 0.000E+00

     total cpu time spent up to now is      742.3 secs

     total energy              =    -989.71348952 Ry
     estimated scf accuracy    <       0.02042740 Ry

     iteration #  5     ecut=    50.00 Ry     beta= 0.70
     Davidson diagonalization with overlap
     ethr =  2.61E-06,  avg # of iterations =  1.0

     negative rho (up, down):  4.943E-04 0.000E+00

     total cpu time spent up to now is      743.1 secs

     total energy              =    -989.71340329 Ry
     estimated scf accuracy    <       0.00643804 Ry

     iteration #  6     ecut=    50.00 Ry     beta= 0.70
     Davidson diagonalization with overlap
     ethr =  2.61E-06,  avg # of iterations =  1.0

     negative rho (up, down):  4.939E-04 0.000E+00

     total cpu time spent up to now is      743.9 secs

     total energy              =    -989.71342439 Ry
     estimated scf accuracy    <       0.02556395 Ry

     iteration #  7     ecut=    50.00 Ry     beta= 0.70
     Davidson diagonalization with overlap
     ethr =  2.61E-06,  avg # of iterations =  1.0

     negative rho (up, down):  4.939E-04 0.000E+00

     total cpu time spent up to now is      744.8 secs

     total energy              =    -989.71349348 Ry
     estimated scf accuracy    <       0.00001142 Ry

     iteration #  8     ecut=    50.00 Ry     beta= 0.70
     Davidson diagonalization with overlap
     ethr =  2.12E-08,  avg # of iterations =  9.0

     negative rho (up, down):  4.938E-04 0.000E+00

     total cpu time spent up to now is      745.7 secs

     total energy              =    -989.71349347 Ry
     estimated scf accuracy    <       0.00004239 Ry

     iteration #  9     ecut=    50.00 Ry     beta= 0.70
     Davidson diagonalization with overlap
     ethr =  2.12E-08,  avg # of iterations =  2.0

     negative rho (up, down):  4.937E-04 0.000E+00

     total cpu time spent up to now is      746.5 secs

     total energy              =    -989.71349422 Ry
     estimated scf accuracy    <       0.00009725 Ry

     iteration # 10     ecut=    50.00 Ry     beta= 0.70
     Davidson diagonalization with overlap
     ethr =  2.12E-08,  avg # of iterations =  1.0

     negative rho (up, down):  4.937E-04 0.000E+00

     total cpu time spent up to now is      747.3 secs

     total energy              =    -989.71349425 Ry
     estimated scf accuracy    <       0.00002844 Ry

     iteration # 11     ecut=    50.00 Ry     beta= 0.70
     Davidson diagonalization with overlap
     ethr =  2.12E-08,  avg # of iterations =  1.0

     negative rho (up, down):  4.937E-04 0.000E+00

     total cpu time spent up to now is      748.2 secs

     total energy              =    -989.71349428 Ry
     estimated scf accuracy    <       0.00000562 Ry

     iteration # 12     ecut=    50.00 Ry     beta= 0.70
     Davidson diagonalization with overlap
     ethr =  1.04E-08,  avg # of iterations =  1.0

     negative rho (up, down):  4.937E-04 0.000E+00

     total cpu time spent up to now is      749.0 secs

     total energy              =    -989.71349432 Ry
     estimated scf accuracy    <       0.00000006 Ry

     iteration # 13     ecut=    50.00 Ry     beta= 0.70
     Davidson diagonalization with overlap
     ethr =  1.14E-10,  avg # of iterations =  6.0

     negative rho (up, down):  4.937E-04 0.000E+00

     total cpu time spent up to now is      749.9 secs

     total energy              =    -989.71349436 Ry
     estimated scf accuracy    <       0.00000090 Ry

     iteration # 14     ecut=    50.00 Ry     beta= 0.70
     Davidson diagonalization with overlap
     ethr =  1.14E-10,  avg # of iterations =  1.0

     negative rho (up, down):  4.937E-04 0.000E+00

     total cpu time spent up to now is      750.7 secs

     total energy              =    -989.71349436 Ry
     estimated scf accuracy    <       0.00000075 Ry

     iteration # 15     ecut=    50.00 Ry     beta= 0.70
     Davidson diagonalization with overlap
     ethr =  1.14E-10,  avg # of iterations =  1.0

     negative rho (up, down):  4.937E-04 0.000E+00

     total cpu time spent up to now is      751.5 secs

     total energy              =    -989.71349436 Ry
     estimated scf accuracy    <       0.00000076 Ry

     iteration # 16     ecut=    50.00 Ry     beta= 0.70
     Davidson diagonalization with overlap
     ethr =  1.14E-10,  avg # of iterations =  1.0

     negative rho (up, down):  4.937E-04 0.000E+00

     total cpu time spent up to now is      752.4 secs

     total energy              =    -989.71349434 Ry
     estimated scf accuracy    <       0.00000060 Ry

     iteration # 17     ecut=    50.00 Ry     beta= 0.70
     Davidson diagonalization with overlap
     ethr =  1.14E-10,  avg # of iterations =  5.0

     negative rho (up, down):  4.937E-04 0.000E+00

     total cpu time spent up to now is      753.2 secs

     total energy              =    -989.71349434 Ry
     estimated scf accuracy    <       0.00000023 Ry

     iteration # 18     ecut=    50.00 Ry     beta= 0.70
     Davidson diagonalization with overlap
     ethr =  1.14E-10,  avg # of iterations =  1.0

     negative rho (up, down):  4.937E-04 0.000E+00

     total cpu time spent up to now is      754.0 secs

     total energy              =    -989.71349434 Ry
     estimated scf accuracy    <       0.00000014 Ry

     iteration # 19     ecut=    50.00 Ry     beta= 0.70
     Davidson diagonalization with overlap
     ethr =  1.14E-10,  avg # of iterations =  5.0

     negative rho (up, down):  4.937E-04 0.000E+00

     total cpu time spent up to now is      754.9 secs

     total energy              =    -989.71349434 Ry
     estimated scf accuracy    <          6.6E-09 Ry

     iteration # 20     ecut=    50.00 Ry     beta= 0.70
     Davidson diagonalization with overlap
     ethr =  1.22E-11,  avg # of iterations =  2.0

     negative rho (up, down):  4.937E-04 0.000E+00

     total cpu time spent up to now is      755.8 secs

     total energy              =    -989.71349434 Ry
     estimated scf accuracy    <          5.0E-09 Ry

     iteration # 21     ecut=    50.00 Ry     beta= 0.70
     Davidson diagonalization with overlap
     ethr =  9.29E-12,  avg # of iterations =  5.0

     negative rho (up, down):  4.937E-04 0.000E+00

     total cpu time spent up to now is      756.6 secs

     total energy              =    -989.71349434 Ry
     estimated scf accuracy    <       0.00000002 Ry

     iteration # 22     ecut=    50.00 Ry     beta= 0.70
     Davidson diagonalization with overlap
     ethr =  9.29E-12,  avg # of iterations =  5.0

     negative rho (up, down):  4.937E-04 0.000E+00

     total cpu time spent up to now is      757.5 secs

     total energy              =    -989.71349434 Ry
     estimated scf accuracy    <          1.7E-09 Ry

     iteration # 23     ecut=    50.00 Ry     beta= 0.70
     Davidson diagonalization with overlap
     ethr =  3.07E-12,  avg # of iterations =  1.0

     negative rho (up, down):  4.937E-04 0.000E+00

     total cpu time spent up to now is      758.3 secs

     End of self-consistent calculation

          k = 0.0000 0.0000 0.0000 ( 10215 PWs)   bands (ev):

   -46.5189 -44.5147 -44.3109 -24.7587 -24.0874 -24.0874 -23.4213 -22.8116
   -22.8116 -22.6752 -22.6752 -22.3710  -9.4233  -9.0864  -7.7389  -3.9225
    -3.8760  -3.8760  -3.2428  -3.2428  -2.8266  -2.6664   0.9427   1.2936
     1.2936   2.6736   2.6736   2.8361   4.4823   4.4823   4.7473   4.7473

     the Fermi energy is     2.7786 ev

!    total energy              =    -989.71349434 Ry
     total all-electron energy =    -21890.316497 Ry
     estimated scf accuracy    <          6.8E-10 Ry
     smearing contrib. (-TS)   =      -0.01094270 Ry
     internal energy E=F+TS    =    -989.70255165 Ry

     The total energy is F=E-TS. E is the sum of the following terms:
     one-electron contribution =   -4270.71075052 Ry
     hartree contribution      =    2144.96869043 Ry
     xc contribution           =     -73.25311755 Ry
     ewald contribution        =    1870.56152447 Ry
     one-center paw contrib.   =    -661.26889847 Ry

     convergence has been achieved in  23 iterations

     negative rho (up, down):  4.937E-04 0.000E+00

     Forces acting on atoms (cartesian axes, Ry/au):

     atom    1 type  1   force =     0.00000000    0.00000000    0.00005126
     atom    2 type  2   force =     0.00000000    0.00000000   -0.00000776
     atom    3 type  2   force =     0.00000000    0.00000000   -0.00000776
     atom    4 type  1   force =     0.00000000    0.00000000    0.00006223
     atom    5 type  2   force =     0.00000000    0.00000000   -0.00004246
     atom    6 type  2   force =     0.00000000    0.00000000   -0.00004246
     atom    7 type  1   force =     0.00000000    0.00000000   -0.00001598
     atom    8 type  2   force =     0.00000000    0.00000000    0.00000147
     atom    9 type  2   force =     0.00000000    0.00000000    0.00000147

     Total force =     0.000102     Total SCF correction =     0.000130
     SCF correction compared to forces is large: reduce conv_thr to get better values


     Computing stress (Cartesian axis) and pressure


     negative rho (up, down):  4.937E-04 0.000E+00
          total   stress  (Ry/bohr**3)                   (kbar)     P=      154.83
   0.00158159  -0.00000000   0.00000000          232.66       -0.00        0.00
  -0.00000000   0.00158159   0.00000000           -0.00      232.66        0.00
   0.00000000   0.00000000  -0.00000554            0.00        0.00       -0.81

     Energy error            =      3.9E-06 Ry
     Gradient error          =      6.2E-05 Ry/Bohr

     bfgs converged in  33 scf cycles and  32 bfgs steps
     (criteria: energy <  1.0E-04 Ry, force <  1.0E-03 Ry/Bohr)

     End of BFGS Geometry Optimization

     Final energy             =    -989.7134943410 Ry

     File ./pwscf.bfgs deleted, as requested
Begin final coordinates

ATOMIC_POSITIONS (angstrom)
Zr              -0.0000000000       -0.0000000000        9.7438095065
B                1.5902452000        0.9181284800       11.6175169711
B               -0.0000000200        1.8362569800       11.6175169711
Zr               0.0000000000        0.0000000000       14.7099571660
B                1.5902452000        0.9181284800       15.4439420467
B               -0.0000000200        1.8362569800       15.4439420467
Zr              -0.0000000000       -0.0000000000       17.5093207121
B                1.5902452000        0.9181284800       18.2299012899
B               -0.0000000200        1.8362569800       18.2299012899
End final coordinates



     Writing all to output data dir ./pwscf.save/ :
     XML data file, charge density, pseudopotentials, collected wavefunctions

     init_run     :      1.59s CPU      2.49s WALL (       1 calls)
     electrons    :    620.22s CPU    657.30s WALL (      33 calls)
     update_pot   :      9.28s CPU      9.46s WALL (      32 calls)
     forces       :     13.23s CPU     13.80s WALL (      33 calls)
     stress       :     59.76s CPU     61.50s WALL (      33 calls)

     Called by init_run:
     wfcinit      :      0.09s CPU      0.40s WALL (       1 calls)
     potinit      :      0.43s CPU      0.48s WALL (       1 calls)
     hinit0       :      0.86s CPU      1.28s WALL (       1 calls)

     Called by electrons:
     c_bands      :     86.76s CPU     89.59s WALL (     838 calls)
     sum_band     :    151.73s CPU    167.15s WALL (     838 calls)
     v_of_rho     :     43.12s CPU     45.01s WALL (     870 calls)
     newd         :    142.47s CPU    156.24s WALL (     870 calls)
     PAW_pot      :    210.11s CPU    210.99s WALL (     902 calls)
     mix_rho      :      4.62s CPU      5.00s WALL (     838 calls)

     Called by c_bands:
     init_us_2    :      2.02s CPU      2.10s WALL (    1742 calls)
     cegterg      :     82.81s CPU     85.53s WALL (     838 calls)

     Called by *egterg:
     cdiaghg      :      3.51s CPU      3.83s WALL (    3722 calls)
     h_psi        :     63.61s CPU     66.13s WALL (    3756 calls)
     s_psi        :      4.20s CPU      4.22s WALL (    3756 calls)
     g_psi        :      0.34s CPU      0.34s WALL (    2917 calls)

     Called by h_psi:
     h_psi:calbec :      5.09s CPU      5.22s WALL (    3756 calls)
     vloc_psi     :     53.95s CPU     56.31s WALL (    3756 calls)
     add_vuspsi   :      4.27s CPU      4.31s WALL (    3756 calls)

     General routines
     calbec       :      8.14s CPU      8.28s WALL (    5187 calls)
     fft          :     21.30s CPU     24.39s WALL (   12102 calls)
     ffts         :      1.16s CPU      1.24s WALL (    1708 calls)
     fftw         :     56.98s CPU     59.47s WALL (  157830 calls)
     interpolate  :      2.07s CPU      2.38s WALL (     870 calls)

     Parallel routines

     PWSCF        :    717.42s CPU    760.96s WALL


   This run was terminated on:   8:35:36  13Nov2025            

=------------------------------------------------------------------------------=
   JOB DONE.
=------------------------------------------------------------------------------=
