
     Program PWSCF v.7.4 starts on 10Jun2025 at 14: 2: 5 

     This program is part of the open-source Quantum ESPRESSO suite
     for quantum simulation of materials; please cite
         "P. Giannozzi et al., J. Phys.:Condens. Matter 21 395502 (2009);
         "P. Giannozzi et al., J. Phys.:Condens. Matter 29 465901 (2017);
         "P. Giannozzi et al., J. Chem. Phys. 152 154105 (2020);
          URL http://www.quantum-espresso.org", 
     in publications or presentations arising from this work. More details at
     http://www.quantum-espresso.org/quote

     Parallel version (MPI & OpenMP), running on       4 processor cores
     Number of MPI processes:                 1
     Threads/MPI process:                     4

     MPI processes distributed on     1 nodes
     205858 MiB available memory on the printing compute node when the environment starts

     Reading input from qe.in

     Current dimensions of program PWSCF are:
     Max number of different atomic species (ntypx) = 10
     Max number of k-points (npk) =  40000
     Max angular momentum in pseudopotentials (lmaxx) =  4
     file Zr.pbe-spn-kjpaw_psl.1.0.0.UPF: wavefunction(s)  4S 4P renormalized

     Subspace diagonalization in iterative solution of the eigenvalue problem:
     a serial algorithm will be used


     G-vector sticks info
     --------------------
     sticks:   dense  smooth     PW     G-vecs:    dense   smooth      PW
     Sum         625     499    163                13953     9997    1967

     Using Slab Decomposition



     bravais-lattice index     =            4
     lattice parameter (alat)  =       6.0093  a.u.
     unit-cell volume          =     209.5066 (a.u.)^3
     number of atoms/cell      =            3
     number of atomic types    =            2
     number of electrons       =        18.00
     number of Kohn-Sham states=           13
     kinetic-energy cutoff     =      50.0000  Ry
     charge density cutoff     =     250.0000  Ry
     scf convergence threshold =      1.0E-08
     mixing beta               =       0.7000
     number of iterations used =            8  plain     mixing
     Exchange-correlation= SLA  PW   PBX  PBC
                           (   1   4   3   4   0   0   0)

     celldm(1)=   6.009329  celldm(2)=   0.000000  celldm(3)=   1.114780
     celldm(4)=   0.000000  celldm(5)=   0.000000  celldm(6)=   0.000000

     crystal axes: (cart. coord. in units of alat)
               a(1) = (   1.000000   0.000000   0.000000 )  
               a(2) = (  -0.500000   0.866025   0.000000 )  
               a(3) = (   0.000000   0.000000   1.114780 )  

     reciprocal axes: (cart. coord. in units 2 pi/alat)
               b(1) = (  1.000000  0.577350 -0.000000 )  
               b(2) = (  0.000000  1.154701  0.000000 )  
               b(3) = (  0.000000 -0.000000  0.897038 )  


     PseudoPot. # 1 for Zr read from file:
     /home/cganley2/qe-projects/common/pseudopotentials/SSSP_1.3.0_PBE_precision/Zr.pbe-spn-kjpaw_psl.1.0.0.UPF
     MD5 check sum: 83bf7718257ce689f169bc8534fef73a
     Pseudo is Projector augmented-wave + core cor, Zval = 12.0
     Generated using &quot;atomic&quot; code by A. Dal Corso  v.6.2.2
     Shape of augmentation charge: PSQ
     Using radial grid of 1225 points,  6 beta functions with: 
                l(1) =   0
                l(2) =   0
                l(3) =   1
                l(4) =   1
                l(5) =   2
                l(6) =   2
     Q(r) pseudized with 0 coefficients 


     PseudoPot. # 2 for B  read from file:
     /home/cganley2/qe-projects/common/pseudopotentials/SSSP_1.3.0_PBE_precision/B.pbe-n-kjpaw_psl.1.0.0.UPF
     MD5 check sum: 757e44352cacacece234d5873ff275d1
     Pseudo is Projector augmented-wave + core cor, Zval =  3.0
     Generated using &quot;atomic&quot; code by A. Dal Corso  v.6.3
     Shape of augmentation charge: PSQ
     Using radial grid of 1059 points,  4 beta functions with: 
                l(1) =   0
                l(2) =   0
                l(3) =   1
                l(4) =   1
     Q(r) pseudized with 0 coefficients 


     atomic species   valence    mass     pseudopotential
     Zr               12.00    91.22400     Zr( 1.00)
     B                 3.00    10.81000     B ( 1.00)

     No symmetry found



   Cartesian axes

     site n.     atom                  positions (alat units)
         1        Zr     tau(   1) = (   0.0000000   0.0000000   0.0000000  )
         2        B      tau(   2) = (   0.5000000   0.2886751   0.5573899  )
         3        B      tau(   3) = (  -0.0000000   0.5773503   0.5573899  )

     number of k points=    36  Gaussian smearing, width (Ry)=  0.0100
                       cart. coord. in units 2pi/alat
        k(    1) = (   0.0000000   0.0000000   0.0000000), wk =   0.0312500
        k(    2) = (   0.0000000   0.0000000   0.2242595), wk =   0.0625000
        k(    3) = (   0.0000000   0.0000000  -0.4485190), wk =   0.0312500
        k(    4) = (   0.0000000   0.2886751   0.0000000), wk =   0.0625000
        k(    5) = (   0.0000000   0.2886751   0.2242595), wk =   0.0625000
        k(    6) = (   0.0000000   0.2886751  -0.4485190), wk =   0.0625000
        k(    7) = (   0.0000000   0.2886751  -0.2242595), wk =   0.0625000
        k(    8) = (   0.0000000  -0.5773503   0.0000000), wk =   0.0312500
        k(    9) = (   0.0000000  -0.5773503   0.2242595), wk =   0.0625000
        k(   10) = (   0.0000000  -0.5773503  -0.4485190), wk =   0.0312500
        k(   11) = (   0.2500000   0.1443376   0.0000000), wk =   0.0625000
        k(   12) = (   0.2500000   0.1443376   0.2242595), wk =   0.0625000
        k(   13) = (   0.2500000   0.1443376  -0.4485190), wk =   0.0625000
        k(   14) = (   0.2500000   0.1443376  -0.2242595), wk =   0.0625000
        k(   15) = (   0.2500000   0.4330127   0.0000000), wk =   0.0625000
        k(   16) = (   0.2500000   0.4330127   0.2242595), wk =   0.0625000
        k(   17) = (   0.2500000   0.4330127  -0.4485190), wk =   0.0625000
        k(   18) = (   0.2500000   0.4330127  -0.2242595), wk =   0.0625000
        k(   19) = (   0.2500000  -0.4330127   0.0000000), wk =   0.0625000
        k(   20) = (   0.2500000  -0.4330127   0.2242595), wk =   0.0625000
        k(   21) = (   0.2500000  -0.4330127  -0.4485190), wk =   0.0625000
        k(   22) = (   0.2500000  -0.4330127  -0.2242595), wk =   0.0625000
        k(   23) = (   0.2500000  -0.1443376   0.0000000), wk =   0.0625000
        k(   24) = (   0.2500000  -0.1443376   0.2242595), wk =   0.0625000
        k(   25) = (   0.2500000  -0.1443376  -0.4485190), wk =   0.0625000
        k(   26) = (   0.2500000  -0.1443376  -0.2242595), wk =   0.0625000
        k(   27) = (  -0.5000000  -0.2886751   0.0000000), wk =   0.0312500
        k(   28) = (  -0.5000000  -0.2886751   0.2242595), wk =   0.0625000
        k(   29) = (  -0.5000000  -0.2886751  -0.4485190), wk =   0.0312500
        k(   30) = (  -0.5000000   0.0000000   0.0000000), wk =   0.0625000
        k(   31) = (  -0.5000000   0.0000000   0.2242595), wk =   0.0625000
        k(   32) = (  -0.5000000   0.0000000  -0.4485190), wk =   0.0625000
        k(   33) = (  -0.5000000   0.0000000  -0.2242595), wk =   0.0625000
        k(   34) = (  -0.5000000  -0.8660254   0.0000000), wk =   0.0312500
        k(   35) = (  -0.5000000  -0.8660254   0.2242595), wk =   0.0625000
        k(   36) = (  -0.5000000  -0.8660254  -0.4485190), wk =   0.0312500

     Dense  grid:    13953 G-vectors     FFT dimensions: (  32,  32,  36)

     Smooth grid:     9997 G-vectors     FFT dimensions: (  27,  27,  32)

     Estimated max dynamical RAM per process >      63.89 MB

     Check: negative core charge=   -0.000003

     Initial potential from superposition of free atoms

     starting charge      17.9973, renormalised to      18.0000
     Starting wfcs are   21 randomized atomic wfcs
     Checking if some PAW data can be deallocated... 

     total cpu time spent up to now is        1.7 secs

     per-process dynamical memory:   202.0 Mb

     Self-consistent Calculation

     iteration #  1     ecut=    50.00 Ry     beta= 0.70
     Davidson diagonalization with overlap
     ethr =  1.00E-02,  avg # of iterations =  2.0

     total cpu time spent up to now is        2.2 secs

     total energy              =    -330.23205210 Ry
     estimated scf accuracy    <       0.27010851 Ry

     iteration #  2     ecut=    50.00 Ry     beta= 0.70
     Davidson diagonalization with overlap
     ethr =  1.50E-03,  avg # of iterations =  3.5

     total cpu time spent up to now is        2.8 secs

     total energy              =    -330.27753330 Ry
     estimated scf accuracy    <       0.31043323 Ry

     iteration #  3     ecut=    50.00 Ry     beta= 0.70
     Davidson diagonalization with overlap
     ethr =  1.50E-03,  avg # of iterations =  2.1

     total cpu time spent up to now is        3.3 secs

     total energy              =    -330.35142905 Ry
     estimated scf accuracy    <       0.00200794 Ry

     iteration #  4     ecut=    50.00 Ry     beta= 0.70
     Davidson diagonalization with overlap
     ethr =  1.12E-05,  avg # of iterations =  5.2

     total cpu time spent up to now is        3.9 secs

     total energy              =    -330.35195092 Ry
     estimated scf accuracy    <       0.00069933 Ry

     iteration #  5     ecut=    50.00 Ry     beta= 0.70
     Davidson diagonalization with overlap
     ethr =  3.89E-06,  avg # of iterations =  2.2

     total cpu time spent up to now is        4.5 secs

     total energy              =    -330.35209602 Ry
     estimated scf accuracy    <       0.00000125 Ry

     iteration #  6     ecut=    50.00 Ry     beta= 0.70
     Davidson diagonalization with overlap
     ethr =  6.94E-09,  avg # of iterations =  4.2

     total cpu time spent up to now is        5.1 secs

     total energy              =    -330.35209735 Ry
     estimated scf accuracy    <       0.00000409 Ry

     iteration #  7     ecut=    50.00 Ry     beta= 0.70
     Davidson diagonalization with overlap
     ethr =  6.94E-09,  avg # of iterations =  2.7

     total cpu time spent up to now is        5.6 secs

     total energy              =    -330.35209803 Ry
     estimated scf accuracy    <       0.00000005 Ry

     iteration #  8     ecut=    50.00 Ry     beta= 0.70
     Davidson diagonalization with overlap
     ethr =  2.61E-10,  avg # of iterations =  3.5

     total cpu time spent up to now is        6.2 secs

     End of self-consistent calculation

          k = 0.0000 0.0000 0.0000 (  1263 PWs)   bands (ev):

   -32.9961 -11.1536 -10.6518 -10.6518   3.0396  13.1059  13.1059  13.1261
    13.3711  19.0504  19.0504  19.8167  19.8169

          k = 0.0000 0.0000 0.2243 (  1239 PWs)   bands (ev):

   -32.9869 -11.3305 -10.6396 -10.6396   3.8682  10.5229  13.6792  13.6792
    15.7855  17.0031  17.0031  18.2922  18.2922

          k = 0.0000 0.0000-0.4485 (  1240 PWs)   bands (ev):

   -32.9778 -11.5000 -10.6273 -10.6273   5.0376   8.7617  14.7882  14.7882
    16.0442  16.0442  16.4404  16.4405  17.5043

          k = 0.0000 0.2887 0.0000 (  1246 PWs)   bands (ev):

   -32.9405 -11.1212 -11.0705 -10.7562   4.1977  10.5677  12.4631  13.0041
    13.7029  17.8356  18.4675  19.1216  19.3357

          k = 0.0000 0.2887 0.2243 (  1248 PWs)   bands (ev):

   -32.9318 -11.2325 -11.0968 -10.7411   4.7397  10.3477  11.7457  12.6146
    14.1671  17.0486  17.7289  20.4024  20.6265

          k = 0.0000 0.2887-0.4485 (  1248 PWs)   bands (ev):

   -32.9230 -11.3847 -11.0764 -10.7259   5.3098  10.3197  11.0174  12.2272
    14.1168  18.0940  18.3618  18.3713  19.8256

          k = 0.0000 0.2887-0.2243 (  1248 PWs)   bands (ev):

   -32.9318 -11.2325 -11.0968 -10.7411   4.7397  10.3477  11.7457  12.6146
    14.1671  17.0486  17.7289  20.4024  20.6265

          k = 0.0000-0.5774 0.0000 (  1262 PWs)   bands (ev):

   -32.8843 -11.5570 -10.9858 -10.8582   6.8063   7.2230  11.8484  12.6937
    13.0404  17.9550  17.9766  20.5307  20.6255

          k = 0.0000-0.5774 0.2243 (  1268 PWs)   bands (ev):

   -32.8759 -11.5269 -11.1281 -10.8403   6.4420   7.5994  11.7987  12.7206
    12.8580  17.2433  19.8342  20.7018  21.9053

          k = 0.0000-0.5774-0.4485 (  1236 PWs)   bands (ev):

   -32.8674 -11.4965 -11.2659 -10.8222   5.8500   8.7494  11.1529  11.5891
    13.6763  19.3916  19.7896  20.8899  21.8467

          k = 0.2500 0.1443 0.0000 (  1246 PWs)   bands (ev):

   -32.9405 -11.1212 -11.0705 -10.7562   4.1977  10.5677  12.4631  13.0041
    13.7029  17.8356  18.4675  19.1216  19.3357

          k = 0.2500 0.1443 0.2243 (  1248 PWs)   bands (ev):

   -32.9318 -11.2325 -11.0968 -10.7411   4.7397  10.3477  11.7457  12.6146
    14.1671  17.0486  17.7289  20.4024  20.6265

          k = 0.2500 0.1443-0.4485 (  1248 PWs)   bands (ev):

   -32.9230 -11.3847 -11.0764 -10.7259   5.3098  10.3197  11.0174  12.2272
    14.1168  18.0940  18.3618  18.3713  19.8256

          k = 0.2500 0.1443-0.2243 (  1248 PWs)   bands (ev):

   -32.9318 -11.2325 -11.0968 -10.7411   4.7397  10.3477  11.7457  12.6146
    14.1671  17.0486  17.7289  20.4024  20.6265

          k = 0.2500 0.4330 0.0000 (  1245 PWs)   bands (ev):

   -32.8842 -11.3900 -11.0423 -10.9861   6.1967   8.9199  10.2162  12.3740
    14.9915  16.1330  16.6842  20.7467  22.9532

          k = 0.2500 0.4330 0.2243 (  1255 PWs)   bands (ev):

   -32.8759 -11.3629 -11.1280 -11.0210   6.1889   8.7081  10.2650  12.6550
    13.5394  17.5025  19.5632  20.3978  21.8687

          k = 0.2500 0.4330-0.4485 (  1248 PWs)   bands (ev):

   -32.8675 -11.3348 -11.2664 -10.9995   6.0261   8.4722  11.0215  12.4110
    13.0030  19.2569  20.6461  20.8711  21.8220

          k = 0.2500 0.4330-0.2243 (  1255 PWs)   bands (ev):

   -32.8759 -11.3629 -11.1280 -11.0210   6.1889   8.7081  10.2650  12.6550
    13.5394  17.5025  19.5632  20.3978  21.8687

          k = 0.2500-0.4330 0.0000 (  1245 PWs)   bands (ev):

   -32.8842 -11.3900 -11.0423 -10.9861   6.1967   8.9199  10.2162  12.3740
    14.9915  16.1330  16.6842  20.7467  22.9532

          k = 0.2500-0.4330 0.2243 (  1255 PWs)   bands (ev):

   -32.8759 -11.3629 -11.1280 -11.0210   6.1889   8.7081  10.2650  12.6550
    13.5394  17.5025  19.5632  20.3978  21.8687

          k = 0.2500-0.4330-0.4485 (  1248 PWs)   bands (ev):

   -32.8675 -11.3348 -11.2664 -10.9995   6.0261   8.4722  11.0215  12.4110
    13.0030  19.2569  20.6461  20.8711  21.8220

          k = 0.2500-0.4330-0.2243 (  1255 PWs)   bands (ev):

   -32.8759 -11.3629 -11.1280 -11.0210   6.1889   8.7081  10.2650  12.6550
    13.5394  17.5025  19.5632  20.3978  21.8687

          k = 0.2500-0.1443 0.0000 (  1246 PWs)   bands (ev):

   -32.9405 -11.1212 -11.0705 -10.7562   4.1977  10.5677  12.4631  13.0041
    13.7029  17.8356  18.4675  19.1216  19.3357

          k = 0.2500-0.1443 0.2243 (  1248 PWs)   bands (ev):

   -32.9318 -11.2325 -11.0968 -10.7411   4.7397  10.3477  11.7457  12.6146
    14.1671  17.0486  17.7289  20.4024  20.6265

          k = 0.2500-0.1443-0.4485 (  1248 PWs)   bands (ev):

   -32.9230 -11.3847 -11.0764 -10.7259   5.3098  10.3197  11.0174  12.2272
    14.1168  18.0940  18.3618  18.3713  19.8256

          k = 0.2500-0.1443-0.2243 (  1248 PWs)   bands (ev):

   -32.9318 -11.2325 -11.0968 -10.7411   4.7397  10.3477  11.7457  12.6146
    14.1671  17.0486  17.7289  20.4024  20.6265

          k =-0.5000-0.2887 0.0000 (  1262 PWs)   bands (ev):

   -32.8843 -11.5570 -10.9858 -10.8582   6.8063   7.2230  11.8484  12.6937
    13.0404  17.9550  17.9766  20.5307  20.6255

          k =-0.5000-0.2887 0.2243 (  1268 PWs)   bands (ev):

   -32.8759 -11.5269 -11.1281 -10.8403   6.4420   7.5994  11.7987  12.7206
    12.8580  17.2433  19.8342  20.7018  21.9052

          k =-0.5000-0.2887-0.4485 (  1236 PWs)   bands (ev):

   -32.8674 -11.4965 -11.2659 -10.8222   5.8500   8.7494  11.1529  11.5891
    13.6763  19.3916  19.7896  20.8899  21.8468

          k =-0.5000 0.0000 0.0000 (  1245 PWs)   bands (ev):

   -32.8842 -11.3900 -11.0423 -10.9861   6.1967   8.9199  10.2162  12.3740
    14.9915  16.1330  16.6842  20.7467  22.9532

          k =-0.5000 0.0000 0.2243 (  1255 PWs)   bands (ev):

   -32.8759 -11.3629 -11.1280 -11.0210   6.1889   8.7081  10.2650  12.6550
    13.5394  17.5025  19.5632  20.3978  21.8687

          k =-0.5000 0.0000-0.4485 (  1248 PWs)   bands (ev):

   -32.8675 -11.3348 -11.2664 -10.9995   6.0261   8.4722  11.0215  12.4110
    13.0030  19.2569  20.6461  20.8711  21.8220

          k =-0.5000 0.0000-0.2243 (  1255 PWs)   bands (ev):

   -32.8759 -11.3629 -11.1280 -11.0210   6.1889   8.7081  10.2650  12.6550
    13.5394  17.5025  19.5632  20.3978  21.8687

          k =-0.5000-0.8660 0.0000 (  1262 PWs)   bands (ev):

   -32.8843 -11.5570 -10.9858 -10.8582   6.8063   7.2230  11.8484  12.6937
    13.0404  17.9550  17.9766  20.5307  20.6255

          k =-0.5000-0.8660 0.2243 (  1268 PWs)   bands (ev):

   -32.8759 -11.5269 -11.1281 -10.8403   6.4420   7.5994  11.7987  12.7206
    12.8580  17.2433  19.8342  20.7018  21.9054

          k =-0.5000-0.8660-0.4485 (  1236 PWs)   bands (ev):

   -32.8674 -11.4965 -11.2659 -10.8222   5.8500   8.7494  11.1529  11.5891
    13.6763  19.3916  19.7896  20.8899  21.8469

     the Fermi energy is    15.9930 ev

!    total energy              =    -330.35209805 Ry
     total all-electron energy =     -7297.219766 Ry
     estimated scf accuracy    <          4.8E-09 Ry
     smearing contrib. (-TS)   =      -0.00035365 Ry
     internal energy E=F+TS    =    -330.35174440 Ry

     The total energy is F=E-TS. E is the sum of the following terms:
     one-electron contribution =      -2.04995090 Ry
     hartree contribution      =      12.46265160 Ry
     xc contribution           =     -24.04777794 Ry
     ewald contribution        =     -96.27913794 Ry
     one-center paw contrib.   =    -220.43752922 Ry

     convergence has been achieved in   8 iterations

     Forces acting on atoms (cartesian axes, Ry/au):

     atom    1 type  1   force =    -0.00000023    0.00000008   -0.00000158
     atom    2 type  2   force =     0.00000015   -0.00000004    0.00000074
     atom    3 type  2   force =     0.00000008   -0.00000004    0.00000084

     Total force =     0.000002     Total SCF correction =     0.000007
     SCF correction compared to forces is large: reduce conv_thr to get better values


     Computing stress (Cartesian axis) and pressure

          total   stress  (Ry/bohr**3)                   (kbar)     P=      -13.87
  -0.00018107  -0.00000000   0.00000000          -26.64       -0.00        0.00
  -0.00000000  -0.00018107   0.00000000           -0.00      -26.64        0.00
   0.00000000   0.00000000   0.00007932            0.00        0.00       11.67


     Writing all to output data dir ./tmp/zrb2-ecutrho-5.save/ :
     XML data file, charge density, pseudopotentials, collected wavefunctions

     init_run     :      3.19s CPU      1.51s WALL (       1 calls)
     electrons    :     15.38s CPU      4.53s WALL (       1 calls)
     forces       :      0.21s CPU      0.07s WALL (       1 calls)
     stress       :      1.07s CPU      0.50s WALL (       1 calls)

     Called by init_run:
     wfcinit      :      1.19s CPU      0.32s WALL (       1 calls)
     potinit      :      1.04s CPU      0.48s WALL (       1 calls)
     hinit0       :      0.83s CPU      0.66s WALL (       1 calls)

     Called by electrons:
     c_bands      :      8.93s CPU      2.27s WALL (       8 calls)
     sum_band     :      2.12s CPU      0.67s WALL (       8 calls)
     v_of_rho     :      0.13s CPU      0.03s WALL (       9 calls)
     newd         :      0.63s CPU      0.29s WALL (       9 calls)
     PAW_pot      :      4.03s CPU      1.42s WALL (       9 calls)
     mix_rho      :      0.02s CPU      0.01s WALL (       8 calls)

     Called by c_bands:
     init_us_2    :      0.62s CPU      0.17s WALL (     684 calls)
     cegterg      :      8.33s CPU      2.12s WALL (     288 calls)

     Called by *egterg:
     cdiaghg      :      0.89s CPU      0.22s WALL (    1202 calls)
     h_psi        :      7.24s CPU      1.88s WALL (    1238 calls)
     s_psi        :      0.20s CPU      0.04s WALL (    1238 calls)
     g_psi        :      0.04s CPU      0.01s WALL (     914 calls)

     Called by h_psi:
     h_psi:calbec :      0.26s CPU      0.06s WALL (    1238 calls)
     vloc_psi     :      6.76s CPU      1.75s WALL (    1238 calls)
     add_vuspsi   :      0.19s CPU      0.05s WALL (    1238 calls)

     General routines
     calbec       :      0.52s CPU      0.12s WALL (    2138 calls)
     fft          :      0.50s CPU      0.34s WALL (     140 calls)
     ffts         :      0.53s CPU      0.28s WALL (      17 calls)
     fftw         :      6.36s CPU      1.65s WALL (   25426 calls)
     interpolate  :      0.53s CPU      0.28s WALL (       9 calls)

     Parallel routines

     PWSCF        :     20.72s CPU      7.31s WALL


   This run was terminated on:  14: 2:12  10Jun2025            

=------------------------------------------------------------------------------=
   JOB DONE.
=------------------------------------------------------------------------------=
