
     Program PWSCF v.7.4 starts on 10Jun2025 at 14:17:19 

     This program is part of the open-source Quantum ESPRESSO suite
     for quantum simulation of materials; please cite
         "P. Giannozzi et al., J. Phys.:Condens. Matter 21 395502 (2009);
         "P. Giannozzi et al., J. Phys.:Condens. Matter 29 465901 (2017);
         "P. Giannozzi et al., J. Chem. Phys. 152 154105 (2020);
          URL http://www.quantum-espresso.org", 
     in publications or presentations arising from this work. More details at
     http://www.quantum-espresso.org/quote

     Parallel version (MPI & OpenMP), running on       4 processor cores
     Number of MPI processes:                 1
     Threads/MPI process:                     4

     MPI processes distributed on     1 nodes
     44283 MiB available memory on the printing compute node when the environment starts

     Reading input from qe.in

     Current dimensions of program PWSCF are:
     Max number of different atomic species (ntypx) = 10
     Max number of k-points (npk) =  40000
     Max angular momentum in pseudopotentials (lmaxx) =  4
     file Zr.pbe-spn-kjpaw_psl.1.0.0.UPF: wavefunction(s)  4S 4P renormalized

     Subspace diagonalization in iterative solution of the eigenvalue problem:
     a serial algorithm will be used


     G-vector sticks info
     --------------------
     sticks:   dense  smooth     PW     G-vecs:    dense   smooth      PW
     Sum        1003     499    163                28345     9997    1967

     Using Slab Decomposition



     bravais-lattice index     =            4
     lattice parameter (alat)  =       6.0093  a.u.
     unit-cell volume          =     209.5066 (a.u.)^3
     number of atoms/cell      =            3
     number of atomic types    =            2
     number of electrons       =        18.00
     number of Kohn-Sham states=           13
     kinetic-energy cutoff     =      50.0000  Ry
     charge density cutoff     =     400.0000  Ry
     scf convergence threshold =      1.0E-08
     mixing beta               =       0.7000
     number of iterations used =            8  plain     mixing
     Exchange-correlation= SLA  PW   PBX  PBC
                           (   1   4   3   4   0   0   0)

     celldm(1)=   6.009329  celldm(2)=   0.000000  celldm(3)=   1.114780
     celldm(4)=   0.000000  celldm(5)=   0.000000  celldm(6)=   0.000000

     crystal axes: (cart. coord. in units of alat)
               a(1) = (   1.000000   0.000000   0.000000 )  
               a(2) = (  -0.500000   0.866025   0.000000 )  
               a(3) = (   0.000000   0.000000   1.114780 )  

     reciprocal axes: (cart. coord. in units 2 pi/alat)
               b(1) = (  1.000000  0.577350 -0.000000 )  
               b(2) = (  0.000000  1.154701  0.000000 )  
               b(3) = (  0.000000 -0.000000  0.897038 )  


     PseudoPot. # 1 for Zr read from file:
     /home/cganley2/qe-projects/common/pseudopotentials/SSSP_1.3.0_PBE_precision/Zr.pbe-spn-kjpaw_psl.1.0.0.UPF
     MD5 check sum: 83bf7718257ce689f169bc8534fef73a
     Pseudo is Projector augmented-wave + core cor, Zval = 12.0
     Generated using &quot;atomic&quot; code by A. Dal Corso  v.6.2.2
     Shape of augmentation charge: PSQ
     Using radial grid of 1225 points,  6 beta functions with: 
                l(1) =   0
                l(2) =   0
                l(3) =   1
                l(4) =   1
                l(5) =   2
                l(6) =   2
     Q(r) pseudized with 0 coefficients 


     PseudoPot. # 2 for B  read from file:
     /home/cganley2/qe-projects/common/pseudopotentials/SSSP_1.3.0_PBE_precision/B.pbe-n-kjpaw_psl.1.0.0.UPF
     MD5 check sum: 757e44352cacacece234d5873ff275d1
     Pseudo is Projector augmented-wave + core cor, Zval =  3.0
     Generated using &quot;atomic&quot; code by A. Dal Corso  v.6.3
     Shape of augmentation charge: PSQ
     Using radial grid of 1059 points,  4 beta functions with: 
                l(1) =   0
                l(2) =   0
                l(3) =   1
                l(4) =   1
     Q(r) pseudized with 0 coefficients 


     atomic species   valence    mass     pseudopotential
     Zr               12.00    91.22400     Zr( 1.00)
     B                 3.00    10.81000     B ( 1.00)

     No symmetry found



   Cartesian axes

     site n.     atom                  positions (alat units)
         1        Zr     tau(   1) = (   0.0000000   0.0000000   0.0000000  )
         2        B      tau(   2) = (   0.5000000   0.2886751   0.5573899  )
         3        B      tau(   3) = (  -0.0000000   0.5773503   0.5573899  )

     number of k points=   112  Gaussian smearing, width (Ry)=  0.0100

     Number of k-points >= 100: set verbosity='high' to print them.

     Dense  grid:    28345 G-vectors     FFT dimensions: (  40,  40,  45)

     Smooth grid:     9997 G-vectors     FFT dimensions: (  27,  27,  32)

     Estimated max dynamical RAM per process >     136.29 MB

     Initial potential from superposition of free atoms

     starting charge      17.9973, renormalised to      18.0000
     Starting wfcs are   21 randomized atomic wfcs
     Checking if some PAW data can be deallocated... 

     total cpu time spent up to now is        2.3 secs

     per-process dynamical memory:   225.0 Mb

     Self-consistent Calculation

     iteration #  1     ecut=    50.00 Ry     beta= 0.70
     Davidson diagonalization with overlap
     ethr =  1.00E-02,  avg # of iterations =  2.0

     total cpu time spent up to now is        3.5 secs

     total energy              =    -330.23374295 Ry
     estimated scf accuracy    <       0.26080450 Ry

     iteration #  2     ecut=    50.00 Ry     beta= 0.70
     Davidson diagonalization with overlap
     ethr =  1.45E-03,  avg # of iterations =  3.4

     total cpu time spent up to now is        4.9 secs

     total energy              =    -330.28906030 Ry
     estimated scf accuracy    <       0.27040569 Ry

     iteration #  3     ecut=    50.00 Ry     beta= 0.70
     Davidson diagonalization with overlap
     ethr =  1.45E-03,  avg # of iterations =  2.0

     total cpu time spent up to now is        6.1 secs

     total energy              =    -330.34929924 Ry
     estimated scf accuracy    <       0.00093303 Ry

     iteration #  4     ecut=    50.00 Ry     beta= 0.70
     Davidson diagonalization with overlap
     ethr =  5.18E-06,  avg # of iterations =  5.1

     total cpu time spent up to now is        7.8 secs

     total energy              =    -330.34989370 Ry
     estimated scf accuracy    <       0.00061211 Ry

     iteration #  5     ecut=    50.00 Ry     beta= 0.70
     Davidson diagonalization with overlap
     ethr =  3.40E-06,  avg # of iterations =  2.0

     total cpu time spent up to now is        9.0 secs

     total energy              =    -330.35002458 Ry
     estimated scf accuracy    <       0.00000120 Ry

     iteration #  6     ecut=    50.00 Ry     beta= 0.70
     Davidson diagonalization with overlap
     ethr =  6.66E-09,  avg # of iterations =  4.6

     total cpu time spent up to now is       10.6 secs

     total energy              =    -330.35002571 Ry
     estimated scf accuracy    <       0.00000315 Ry

     iteration #  7     ecut=    50.00 Ry     beta= 0.70
     Davidson diagonalization with overlap
     ethr =  6.66E-09,  avg # of iterations =  2.8

     total cpu time spent up to now is       11.9 secs

     End of self-consistent calculation

     Number of k-points >= 100: set verbosity='high' to print the bands.

     the Fermi energy is    15.3310 ev

!    total energy              =    -330.35002633 Ry
     total all-electron energy =     -7297.217694 Ry
     estimated scf accuracy    <          7.9E-09 Ry
     smearing contrib. (-TS)   =      -0.00068872 Ry
     internal energy E=F+TS    =    -330.34933761 Ry

     The total energy is F=E-TS. E is the sum of the following terms:
     one-electron contribution =      -2.05492554 Ry
     hartree contribution      =      12.46870048 Ry
     xc contribution           =     -24.04527708 Ry
     ewald contribution        =     -96.27913793 Ry
     one-center paw contrib.   =    -220.43869753 Ry

     convergence has been achieved in   7 iterations

     Forces acting on atoms (cartesian axes, Ry/au):

     atom    1 type  1   force =    -0.00000009   -0.00000005    0.00000344
     atom    2 type  2   force =     0.00000017   -0.00000011   -0.00000199
     atom    3 type  2   force =    -0.00000007    0.00000016   -0.00000146

     Total force =     0.000004     Total SCF correction =     0.000014
     SCF correction compared to forces is large: reduce conv_thr to get better values


     Computing stress (Cartesian axis) and pressure

          total   stress  (Ry/bohr**3)                   (kbar)     P=      -11.70
  -0.00006345  -0.00000000  -0.00000000           -9.33       -0.00       -0.00
  -0.00000000  -0.00006346   0.00000000           -0.00       -9.34        0.00
  -0.00000000   0.00000000  -0.00011166           -0.00        0.00      -16.43


     Writing all to output data dir ./tmp/zrb2-.save/ :
     XML data file, charge density, pseudopotentials, collected wavefunctions

     init_run     :      5.17s CPU      2.12s WALL (       1 calls)
     electrons    :     34.39s CPU      9.70s WALL (       1 calls)
     forces       :      0.49s CPU      0.18s WALL (       1 calls)
     stress       :      2.60s CPU      1.20s WALL (       1 calls)

     Called by init_run:
     wfcinit      :      2.84s CPU      0.74s WALL (       1 calls)
     potinit      :      1.07s CPU      0.50s WALL (       1 calls)
     hinit0       :      1.07s CPU      0.78s WALL (       1 calls)

     Called by electrons:
     c_bands      :     25.06s CPU      6.38s WALL (       7 calls)
     sum_band     :      5.08s CPU      1.58s WALL (       7 calls)
     v_of_rho     :      0.23s CPU      0.06s WALL (       8 calls)
     newd         :      0.98s CPU      0.64s WALL (       8 calls)
     PAW_pot      :      3.58s CPU      1.22s WALL (       8 calls)
     mix_rho      :      0.02s CPU      0.01s WALL (       7 calls)

     Called by c_bands:
     init_us_2    :      1.81s CPU      0.45s WALL (    1904 calls)
     cegterg      :     23.45s CPU      5.97s WALL (     784 calls)

     Called by *egterg:
     cdiaghg      :      2.39s CPU      0.60s WALL (    3235 calls)
     h_psi        :     20.11s CPU      5.14s WALL (    3347 calls)
     s_psi        :      0.50s CPU      0.12s WALL (    3347 calls)
     g_psi        :      0.12s CPU      0.02s WALL (    2451 calls)

     Called by h_psi:
     h_psi:calbec :      0.69s CPU      0.18s WALL (    3347 calls)
     vloc_psi     :     18.77s CPU      4.80s WALL (    3347 calls)
     add_vuspsi   :      0.53s CPU      0.14s WALL (    3347 calls)

     General routines
     calbec       :      1.42s CPU      0.36s WALL (    6035 calls)
     fft          :      0.71s CPU      0.40s WALL (     127 calls)
     ffts         :      0.52s CPU      0.28s WALL (      15 calls)
     fftw         :     17.22s CPU      4.39s WALL (   71936 calls)
     interpolate  :      0.53s CPU      0.28s WALL (       8 calls)

     Parallel routines

     PWSCF        :     44.96s CPU     14.74s WALL


   This run was terminated on:  14:17:34  10Jun2025            

=------------------------------------------------------------------------------=
   JOB DONE.
=------------------------------------------------------------------------------=
