1
Lattice="12.721961437103278 0.0 0.0 -6.360980718551639 11.017536653567367 0.0 0.0 0.0 28.86371332811429" Properties=species:S:1:pos:R:3 energy=-149.3588435075547 free_energy=-149.3588435075547 pbc="T T T" config_type=IsolatedAtom
B        7.95122717       6.42689829      15.32716597
