1
Lattice="12.721961437103278 0.0 0.0 -6.360980718551639 11.017536653567367 0.0 0.0 0.0 28.86371332811429" Properties=species:S:1:pos:R:3 energy=-560.1608247576469 free_energy=-560.1608247576469 pbc="T T T" config_type=IsolatedAtom
O        3.99999968       3.99999968      20.27516805
