1
Lattice="12.721961437103278 0.0 0.0 -6.360980718551639 11.017536653567367 0.0 0.0 0.0 28.86371332811429" Properties=species:S:1:pos:R:3 energy=-4172.790832368914 free_energy=-4172.790832368914 pbc="T T T" config_type=IsolatedAtom
Zr       6.36098072       5.50877087      10.09526569
