145
Lattice="12.721961437103278 0.0 0.0 -6.360980718551639 11.017536653567367 0.0 0.0 0.0 28.86371332811429" Properties=species:S:1:pos:R:3:forces:R:3 energy=-216229.47458732428 free_energy=-216229.47458732428 stress="0.004060092974411975 -0.00197587518790922 0.0010503723117881727 -0.00197587518790922 0.003546842867515482 0.0007005542603971816 0.0010503723117881727 0.0007005542603971816 0.009403770294872785" pbc="T T T"
Zr       0.03595785       0.10662330       0.92317970      -0.58761560      -0.91136043       0.62713320
B        1.60414465       0.91971044       2.59705553      -0.14895660       0.25499404       0.78329558
B       -0.05251942       1.85925548       2.73322567       0.46901010      -0.22936117      -0.49308591
Zr       0.03277097      -0.00189257       4.47488026      -0.64167433       0.11486969      -0.31314725
B        1.53386545       0.90537832       6.22927689       1.15369050      -0.00792774       0.29571903
B        0.07054004       1.84623806       6.23222635      -1.79403480       0.44977002      -0.22164375
Zr      -0.03425018       0.09090992       8.02956664       0.84908111      -2.28128121      -0.51120473
B        1.47469053       0.72989854      10.00634350       0.56983976       0.95776498      -1.11767783
B       -0.06557871       1.47347702       9.93659551       0.62062625       1.33307997       0.20390982
Zr      -1.74087919       2.79391959       0.95938482       1.44312267      -0.22544332       0.51877920
B        0.07362544       3.67327021       2.72141522      -1.46052338       0.04259238       0.01155531
B       -1.52631954       4.66966530       2.69564375      -1.08977699      -0.57053036       0.48558009
Zr      -1.69013884       2.71266389       4.47868102       1.33730814       0.54862148      -0.50339706
B       -0.01811069       3.73004061       6.28002693       0.16869471      -0.38370989      -0.82263628
B       -1.62384332       4.57336583       6.24399554      -0.30770423      -0.57399955      -0.61165747
Zr      -1.65157821       2.71177871       8.05485772       1.78372030       0.48438401       0.70009262
B        0.25371910       3.73217588       9.64783063      -2.83249951       0.15971127      -0.08405270
B       -1.40396339       4.59127155       9.71496670      -1.81973477      -0.18771701      -0.06568989
Zr      -3.17775284       5.58680205       1.05971802       0.29249024      -0.53592331      -0.63242401
B       -1.56350489       6.58485264       2.70425785       0.07949722      -0.86526954      -0.32489077
B       -3.17700002       7.42098769       2.61430927       0.03426329      -0.13100902       0.38266474
Zr      -3.28882404       5.56728351       4.35075956       1.87585938      -0.44038883       2.13241948
B       -1.71748460       6.32487053       6.26296749       0.91559426       1.82681842      -0.79310871
B       -3.13811309       7.48000692       6.38872265      -0.07847033      -1.83389384      -1.36922710
Zr      -3.22857812       5.45141057       7.92164624      -0.03602887       0.66473481       0.18029655
B       -1.68748442       6.36316626       9.65541916       1.10600271      -1.42532318       1.00838177
B       -3.20466665       7.08721025       9.81833800       0.54659982       2.32688127       0.24529353
Zr      -4.71316467       8.39105260       0.89205410      -0.13505414      -0.82775792       0.48806094
B       -3.21300283       9.18362006       2.68415848       0.51642407       1.02927533      -0.84389571
B       -4.73442973      10.15349671       2.64658900      -0.12938280      -0.37554150      -0.28857085
Zr      -4.78096450       8.35825635       4.46993376       0.40625590      -1.30883858       0.06709962
B       -3.10174392       9.19525253       6.43804359       0.24352152       0.50926175      -0.99001150
B       -4.65336320      10.10142955       6.26963766      -1.30780191       0.43178335       0.47727774
Zr      -4.72791887       8.20482737       7.97219560      -1.11020774       1.06582099       2.02135503
B       -3.29030314       9.14238678       9.88238709      -0.72832951      -0.69373557      -0.46697841
B       -4.83694843       9.93799551       9.87247934       0.14734529       0.40769880      -0.51514546
Zr       3.12237662       0.13725208       0.74468751       0.49220170      -0.83329891       1.25672052
B        4.78169787       0.94646213       2.57979906      -0.43580456       0.21798198       0.13394805
B        3.18298057       1.84883866       2.58252138       0.06551094       0.33079685       0.56091315
Zr       3.16271017      -0.01910595       4.46423557       0.69583796       0.93079128      -0.13416916
B        4.66458083       0.85219823       6.37583935       1.16233943       0.43426010      -0.64010493
B        3.13215334       1.79669250       6.29141307       0.69595726       0.23952294      -0.03157109
Zr       3.20645728      -0.02414443       8.25274828      -0.16193399      -0.05988434      -0.16429015
B        4.86422629       0.96361892       9.78203180      -0.38202839      -0.67419981       0.36020101
B        2.98505720       1.77526885       9.71923743       0.34849324       0.91871815       0.81717320
Zr       1.55146209       2.71093660       0.98167146      -0.03468238       1.17980648       0.16477686
B        3.14741361       3.76740463       2.69413581       0.69027692      -1.06367643      -0.27420481
B        1.54427317       4.62468636       2.71126169       1.26324520      -0.00535149      -0.31485884
Zr       1.64269591       2.78201197       4.49805729      -0.49600025      -0.08937077      -0.57989792
B        3.23866028       3.67888700       6.26155136      -0.66706654       0.23445350       0.12883489
B        1.63230218       4.69577157       6.29938548      -0.18806463      -1.04002434      -0.46675035
Zr       1.55758303       2.82286723       7.89653119       0.02606250      -1.38865153       1.03933606
B        3.08014046       3.62135355       9.71239464      -0.56675084      -0.95171800       0.65444963
B        1.66113128       4.60521354       9.45631241      -2.57651276      -0.42955549       2.68216813
Zr      -0.12125652       5.44243050       1.01605194       1.39225622       0.96372531      -0.31192572
B        1.62652786       6.44816071       2.66604271      -0.17441464      -0.16329976      -0.06851990
B        0.08807528       7.44728052       2.61208253      -0.88603172      -0.36892039       0.13763475
Zr       0.08900681       5.62294605       4.43694209      -1.81922389      -1.62245197       0.22586910
B        1.61112304       6.45701715       6.28595237      -0.60449335      -1.06148123       0.03753451
B       -0.07453101       7.16788869       6.28352864       0.47447832       2.72826364      -0.51716326
Zr      -0.19844669       5.56380983       7.95582306       3.41631116      -0.57151947       1.45864056
B        1.56328956       6.40636666       9.67300351      -0.09618831       1.00046123       0.13910928
B        0.18074676       7.38861461       9.82725768      -0.42187355      -0.84585257      -0.26937731
Zr      -1.48557104       8.24178209       0.78196932      -0.58141693       0.37357358       1.29275530
B        0.04592600       9.27638587       2.48345268      -0.17363765      -0.87906197       0.69888395
B       -1.61700222      10.19162842       2.55268836       0.04106977      -1.06888857       0.24505107
Zr      -1.69377613       8.41226297       4.46468262       1.75158665      -1.92852920      -0.44478773
B        0.02864084       9.09659568       6.17297560      -0.35995444       0.56311222       1.00143028
B       -1.44497867      10.06078544       6.38894255      -1.95645241       0.05044736      -0.69266830
Zr      -1.56665707       8.32522700       8.52385816      -1.03721773      -0.36689154      -1.99813102
B        0.10480082       9.16573017       9.85948801       0.07862202      -0.10459890       0.33309104
B       -1.19638084      10.32636410       9.85541678      -2.51492739      -0.98913295       0.81778873
Zr       6.22476166       0.01399497       0.82907126       1.31020820       0.23370094       0.58627168
B        7.87069771       0.89472002       2.69650903       1.30819451       0.48447168      -0.94506759
B        6.37014993       1.87176495       2.59800317      -0.15159250      -0.91060169      -0.00582869
Zr       6.32803311      -0.04753270       4.37099653       0.17999805       0.45417586       1.12889067
B        7.86733710       0.89959570       6.28511104       0.04568259      -0.38745985       0.00964292
B        6.19259135       1.76080598       6.22871278       1.32955035       0.32693608       0.79284465
Zr       6.45441257      -0.15138700       8.05354460      -0.72392135       2.95932817      -1.33423233
B        7.82366081       0.79878118       9.87329469       0.96212686       0.25428236       0.38801263
B        6.30557192       1.78029499       9.99860747       0.56243627      -0.01664121      -1.00848025
Zr       4.75484685       2.77545804       0.89811446       0.20528253       0.18153042       0.57239390
B        6.36267170       3.61936918       2.66812704       0.51591499       1.10339663      -0.54721329
B        4.86191271       4.64229928       2.57336219      -0.69271278      -0.28883336       0.91803629
Zr       4.86319144       2.80789005       4.38072782      -2.08343817      -0.91685333       1.06229755
B        6.37190368       3.56311798       6.41149314      -0.56802457       0.78998276      -1.08264732
B        4.72978237       4.63475156       6.24935409       0.99136467      -0.83208766       0.56337730
Zr       4.60999824       2.77261785       8.25367797       2.85715124      -1.05036506      -1.27564358
B        6.38350424       3.62961207      10.15676661       0.28613087       0.48449251      -0.57491435
B        4.87299381       4.69937663       9.92876553       0.52589267       0.01948691       1.87158878
Zr       3.30544033       5.45088231       0.98366534      -1.12461209       0.79988948      -0.20715815
B        4.78539091       6.56183655       2.64826185       0.62792253      -1.37730114      -0.19126771
B        3.18129581       7.41431381       2.68005264       0.38394181      -1.56846909      -0.13942964
Zr       3.26869412       5.55665505       4.49972812      -1.14766743      -0.54641419      -1.01930613
B        4.74095182       6.43420671       6.27664257       0.21662701       0.12360733       0.23662248
B        3.13015553       7.25857921       6.35585181       1.13833767       1.24221178      -0.52006578
Zr       3.23672287       5.41567238       8.35118922       1.70608096       3.46663125      -2.73530307
B        4.79627562       6.59662947       9.83830422       0.20330021      -0.43834378      -0.69346252
B        3.15563300       7.53340559       9.65592374       0.30191025      -1.55174998       0.38038263
Zr       1.73010604       8.10269208       0.85881553      -1.23976023       1.19165412       0.37676714
B        3.17542324       9.10942041       2.68381715       0.29832047       1.41669275      -0.44711458
B        1.63782673      10.18391727       2.58780314      -0.90232505      -1.57106333       0.05536408
Zr       1.62598044       8.18380966       4.54348552      -0.41254584       1.79224402      -0.98401003
B        3.21263357       9.23498372       6.30672639      -0.30668684      -1.07821242      -0.30987192
B        1.64428752      10.10898101       6.40727073      -0.20416667      -0.16042475      -1.89406254
Zr       1.53297309       8.31288340       7.94584703       1.13741156      -0.98649037       0.93369766
B        3.13930959       9.21218715       9.62256260      -0.18195311      -0.32833630       0.75117993
B        1.50271581      10.05826315       9.97449626       1.82517677       0.59408835      -1.05208744
Zr       9.56660129      -0.13842512       0.88564672       0.02872436       0.97352276       0.76038396
B       11.07152166       0.83616395       2.62445258       1.32239292       0.15813544       0.26899113
B        9.60046467       1.70634563       2.61018320      -1.86471545       1.03082133       0.59405647
Zr       9.53012585      -0.04601248       4.43015426      -0.14405531      -0.16371062       0.18831402
B       10.98708416       0.93088249       6.18064647       1.67271935      -0.65037931       0.74889473
B        9.40579463       1.76732910       6.20661486       1.11122667       0.76096349       0.65016668
Zr       9.67366156      -0.01433055       8.10548004      -3.19957590       0.55853128      -0.57658068
B       11.08485098       0.73523757       9.96307283       0.02484688       2.51725038      -0.84584126
B        9.53491784       1.82675896       9.80422594       1.26687097      -1.19807442       0.29144251
Zr       8.06476788       2.78845474       0.93746474      -1.08878300      -0.59614035       0.24530124
B        9.45593783       3.67802001       2.76618944       1.60124371      -0.57475289      -0.60144814
B        7.99450115       4.52235559       2.63670096      -1.36360693       0.75155197       0.34039040
Zr       7.85924339       2.65899281       4.53799764       0.88192258       1.00259036      -1.31396458
B        9.56626348       3.63521949       6.22533251      -1.19419334       0.02496361       0.01714797
B        7.94066954       4.54600663       6.20164961      -0.05433281      -0.04100704       0.40125664
Zr       8.04487317       2.63124764       8.37476371      -2.91380190       1.53403996      -1.33762208
B        9.61393211       3.83453235       9.61161458       0.23268638      -1.12613239       1.32599760
B        7.93131853       4.64178757       9.65423255       1.45310420      -0.00669927       0.31972362
Zr       6.44032185       5.52337021       0.90555134      -0.22779563      -0.01076598       0.45034003
B        7.93836743       6.38028738       2.69165805       0.15913457       0.67216170      -0.57280270
B        6.46707219       7.29844113       2.60730582      -1.02298358       0.95308429       0.18716860
Zr       6.33789324       5.50798096       4.46848735       0.36683497       0.28534746       0.06979594
B        7.88428458       6.58308476       6.24849836       0.53660800      -1.45760338      -0.30213290
B        6.31562813       7.50910935       6.24091971       0.49007977      -2.59222297       0.17714181
Zr       6.42620758       5.47492864       7.97616216      -0.53281048       0.85040728       0.89121043
B        8.04359748       6.42312052       9.82905999      -2.16467372      -0.82270056      -0.82219405
B        6.38856457       7.44408189       9.81273882      -0.26985039      -1.47138886      -0.72848069
Zr       4.69794772       8.27238128       0.83590600       1.28848161      -0.24077378       1.05315599
B        6.50655935       9.11199773       2.65085764      -1.47363395       0.95149792      -0.28792627
B        4.89548664       9.97213238       2.69141266      -1.16344398       1.07696647      -0.68119064
Zr       4.78501822       8.26226233       4.45877486       0.12948204       0.15134105       0.15309145
B        6.33092377       9.19446109       6.31648946       1.00244793       0.97926480      -0.57371030
B        4.79584920      10.01455985       6.32609450      -0.51134665       1.76579946      -0.92458644
Zr       4.83195133       8.34069841       8.05097718      -1.34719069      -1.21289041       0.11277835
B        6.27968251       9.13508521       9.62821585       1.54933494       1.27234382       0.93962019
B        4.75168602      10.14811328       9.61803724       0.64406983      -1.95650975       0.74822007
O        5.74085102       4.37099224      11.18817280      -1.21569831      -0.51659479      -1.96467043
145
Lattice="12.721961437103278 0.0 0.0 -6.360980718551639 11.017536653567367 0.0 0.0 0.0 28.86371332811429" Properties=species:S:1:pos:R:3:forces:R:3 energy=-216223.74898126855 free_energy=-216223.74898126855 stress="-0.002134716455338725 0.0011440243885385167 0.0016104484570598383 0.0011440243885385167 -0.0014112082545615573 -0.0003966440897661631 0.0016104484570598383 -0.0003966440897661631 -0.005544753838189489" pbc="T T T"
Zr       0.03114441      -0.14011935       0.96333152       0.48683967       1.12139461       0.51161790
B        1.54666960       0.90224037       2.57545123       0.67579004      -0.43013193       1.10605438
B        0.03989704       1.92830255       2.78289927      -0.56047272      -1.98899178      -0.65540376
Zr       0.00771426      -0.11718819       4.54851875      -0.52956832       2.35023897      -1.67842180
B        1.70948811       0.88356723       6.42608455      -1.59277295       0.63001592      -1.99864859
B        0.03264303       1.94766250       6.22920699      -0.09790247      -1.48979230       0.44053282
Zr       0.04264035       0.00403145       7.89942870      -0.55872283       1.14100185       0.28692509
B        1.66420264       0.96772367       9.64207902      -1.64555359       0.36341412       0.43672604
B        0.06824656       1.94219431       9.85096560       1.03537527      -0.73317012      -1.07468667
Zr      -1.44740981       2.63184884       0.94390319      -1.08456588       1.24027960       0.81600438
B        0.06999033       3.65553709       2.73531197      -1.32852114       0.60896013      -0.33893362
B       -1.55755795       4.50394686       2.75904417      -0.12852456       1.10814675      -0.78049616
Zr      -1.53951862       2.82422011       4.54038343      -1.50828265      -1.09952198      -0.28722668
B       -0.02933840       3.68525757       6.22689740       0.32648254       0.99586693       0.04208022
B       -1.72335452       4.67348231       6.26610460       0.35745842      -0.18276635       0.25513905
Zr      -1.51972055       2.78462167       7.99721798       0.55902108       0.87504051      -0.27289895
B        0.22676912       3.86788718       9.89342031      -1.63441068      -0.49700427      -0.21749604
B       -1.49996255       4.60942973       9.99932149       1.14515521      -0.31656399      -1.10169996
Zr      -3.19097666       5.59272356       1.15999272       0.63982185      -1.51555116      -1.38613725
B       -1.53658381       6.45290879       2.70144014      -0.00589554      -0.09071958       0.53257008
B       -3.32953530       7.41121343       2.73654928       2.00675322      -1.40607873       0.28696262
Zr      -3.18227458       5.57719033       4.36745109      -0.82719973      -1.33075877       1.70032837
B       -1.73411644       6.45643768       6.30110681       1.26916491      -0.10672469      -0.23418585
B       -3.11909254       7.44579668       6.15073502      -1.75342011      -0.63550394       1.21663136
Zr      -3.19484462       5.43258080       8.33723960       0.79452898       0.32703764      -0.72462583
B       -1.50955873       6.39743017       9.86925045      -0.08129623      -0.08808779      -0.51662050
B       -3.25298817       7.42115140       9.66937626       1.84625956       0.91944912       0.90348257
Zr      -4.80597784       8.11752992       1.10786618       0.37829438       1.91962239      -1.58933745
B       -3.15346180       9.11563152       2.77386563      -0.35673516       1.19258563      -0.19076814
B       -4.75451406       9.99224884       2.77765661      -0.09148731       0.53771203      -0.67467033
Zr      -4.86416257       8.12367660       4.47909126       1.40403650       2.09556580       0.30474617
B       -3.24432793       9.31935206       6.17960006      -0.14541954      -2.27037099       0.59875722
B       -5.00250709      10.02406693       6.22351274       3.46520043       0.41822258       0.30875478
Zr      -4.74980983       8.16832460       7.97574120      -0.50066115       2.17138609      -0.19691359
B       -3.09714774       9.34991440       9.75225939      -1.42969071      -1.73364267      -0.10213810
B       -5.02243388      10.17479735       9.57847336       2.48544866      -1.39556086       1.17013450
Zr       3.21253170      -0.18553778       0.94370575      -0.40789575       1.05716203       0.91693329
B        4.83568186       0.96766723       2.68071627      -1.61730796       0.01205925       0.46497655
B        3.11944254       1.94361484       2.55649556       0.22847825      -2.09263783       1.01689573
Zr       3.18753991       0.00123875       4.44560101      -0.90540961       0.38698856       0.53474755
B        4.79622114       0.86015419       6.26236250      -0.58820078       1.15018454      -0.20846016
B        3.25558464       1.81764775       6.42523879      -0.95297733      -0.13180092      -2.05654751
Zr       3.21035498      -0.04557571       8.07334241      -1.20679381       1.44890919      -0.40826701
B        4.71388559       0.81330996       9.59207070       1.09755200       1.81071097       1.35982150
B        3.12029426       1.86810467       9.83208316       0.66988782       0.12432466      -1.57661306
Zr       1.48477733       2.73523138       1.00837274       0.65643169      -0.02645922      -0.95156425
B        3.04479326       3.67960594       2.58203213       1.30184595       0.61560437       0.06696515
B        1.52847305       4.57614886       2.70572599       1.12108994       0.74079704      -0.68917906
Zr       1.61468533       2.70659838       4.38460088      -0.00337972       0.55979061       1.59694431
B        3.09260845       3.77896485       6.18831781       1.17665379      -1.11851498      -0.23006565
B        1.58196171       4.61305425       6.19072690      -0.48969411       0.28259946      -0.05166683
Zr       1.62167702       2.90078924       7.96687193      -0.91425729      -1.83229641       1.20978888
B        3.12856025       3.78134155       9.71677389       1.74691445      -3.19200478       0.12772109
B        1.85332859       4.68286609       9.97960381      -2.58395739      -0.05040802      -0.63616780
Zr       0.05646809       5.52121911       1.00472580      -0.68587288       0.65186335       0.40677115
B        1.69267374       6.63112129       2.66977416      -1.17893307      -0.99324955      -0.87434888
B        0.12367541       7.49930237       2.85635993      -1.36965622      -0.70513044      -1.96586548
Zr       0.00003817       5.50614183       4.40948067       0.33615168       0.99057689       0.94513444
B        1.64431076       6.38411295       6.14973152      -0.27588914       1.07347234       0.48789716
B        0.10027877       7.37921675       6.22306631      -0.87488084       0.30164774      -0.05082300
Zr      -0.09352458       5.65115989       7.86394006       1.26679590      -2.37820383       0.78110397
B        1.42733820       6.30329638       9.81652782       1.44390454       0.92280261       0.07635251
B        0.04967467       7.22569378       9.68800468      -0.27639385       0.94929268       0.50060330
Zr      -1.63330874       8.19276429       1.01543228       0.60659780       0.85041114       0.66145228
B        0.04838840       9.36706959       2.75978363      -0.56542827      -1.93211255      -0.02347314
B       -1.62862941      10.26031554       2.84578355       0.65815459      -2.34526980      -1.27700138
Zr      -1.53830180       8.25839040       4.62935217      -0.51574915       0.89399082      -2.91831984
B       -0.03100718       9.28698512       6.27793233       0.72661201      -1.45752779      -0.27430225
B       -1.64521055      10.08742528       6.25334314       0.51207093       0.66281445       0.16599016
Zr      -1.62730150       8.28102337       8.28940420       1.69008535      -0.96317381      -1.92389427
B        0.24116251       9.31186894       9.66288579      -1.84814855      -1.63863886      -0.04360745
B       -1.51728699      10.14284537       9.58520201      -0.16963882      -0.12700555       1.22511883
Zr       6.34519259       0.04389137       1.13665385       0.26201110      -0.16857746      -1.28704205
B        8.00236241       0.98201010       2.91507483      -0.11971648       0.01750433      -1.47832313
B        6.38683837       1.84777566       2.69542534      -0.00060035       0.78296005       0.28184510
Zr       6.33732175       0.08768330       4.42238368       0.36219876      -0.63749706       2.28337306
B        7.86793589       0.92010624       6.46962753       1.83697453       0.45663152      -2.06901891
B        6.32582612       1.87177465       6.21657802      -0.32995918      -1.71036519       0.50732982
Zr       6.37201740      -0.01627839       7.96808423      -0.63684708      -0.63200698      -0.97945558
B        7.88823482       0.77421549       9.76706773       1.16648199      -0.47582044      -0.15991542
B        6.34524840       1.30293477       9.82693677      -0.66446973       2.20460680       0.37121356
Zr       4.76327555       2.64818733       1.06500543      -0.05742430       1.04322408      -1.96430122
B        6.34310674       3.70152735       2.54664294      -0.48205639      -0.54967023       0.82685624
B        4.63926145       4.57508170       2.47632915       0.78395815       0.48155451       0.66868403
Zr       4.70249986       2.77619957       4.38658894       0.03706271       0.11359571       0.36178712
B        6.19943155       3.52508655       6.19113364       1.14425584       3.06174883       0.21034092
B        4.69220163       4.66560537       6.12710474      -0.46195370      -1.21813494       0.18217731
Zr       4.70653507       2.90262783       7.93961942      -0.07856134      -3.86047514       1.38485787
B        6.43377253       3.71151933       9.77226837       1.87079817      -1.17537750      -0.87463505
B        4.78274263       4.47817862       9.80088048      -1.42510746       1.79198588      -0.41629091
Zr       3.09543303       5.60253452       0.82097680       0.11078061       0.03336623       0.95170078
B        4.73961967       6.40453063       2.48409310      -0.49854924       0.32737317       0.45670917
B        3.20007989       7.56465355       2.59414768      -0.03230308      -1.86671011      -0.71439695
Zr       3.19693930       5.52932741       4.32301197      -0.74633545       0.44452008       0.52002593
B        4.75372833       6.44380163       6.15377958      -0.31655654       0.47704119       0.39476075
B        3.21877186       7.37543905       6.24531320      -0.45070950      -0.36031928      -0.39922084
Zr       3.22926055       5.42407320       8.02250260      -1.33785913       2.37271890      -0.13346494
B        4.79301024       6.34290915       9.66880163      -0.40938416       0.60674975       0.06163500
B        3.26716581       7.20599138       9.96247070      -0.08953584       1.01374998      -1.67106587
Zr       1.53224148       8.55909412       0.86086400       0.31427828      -1.40373131       1.19717120
B        3.20681804       9.33212437       2.49539383      -0.20162822      -0.52898468       1.72955204
B        1.61651220      10.19336962       2.82499705       0.15830436       0.22877033      -1.16528566
Zr       1.67541359       8.30402565       4.40984637      -0.62942765       0.47083815       1.46526321
B        3.13663794       9.25911964       6.38016301       0.26875484      -0.85580249      -1.32842061
B        1.60248713      10.14281830       6.29158847      -0.60466099       0.05263460      -0.10832649
Zr       1.62512421       8.26806178       7.96050104      -0.30762787      -1.33378162       0.73128962
B        3.12898298       9.09377799       9.71855693       1.29762085      -0.91428840       0.04162796
B        1.74408369      10.03890847       9.59148635      -1.30592037       0.44277867       1.24641656
Zr       9.58887586       0.20787441       1.09651234      -0.28444320      -1.00459660      -0.75672734
B       11.20782097       0.98263076       2.78886548      -0.32230192      -0.11810517      -0.20313875
B        9.55836068       1.89127061       2.79431506       0.29641914      -0.02385521       0.11917449
Zr       9.57529747      -0.05807389       4.53235979      -0.88045885       2.52112966      -1.09728769
B       11.04794269       0.96837601       6.30288387       0.95183962      -0.29199941      -0.33376647
B        9.52405188       1.83486400       6.43380772      -0.71361765       0.66534982      -0.98361562
Zr       9.67840189       0.00883015       8.20380915      -1.26788476      -0.27591948      -0.44202148
B       11.33211657       0.93463086       9.74909320       1.30035805      -0.84555150      -0.10637322
B        9.92847454       1.72748868       9.74666337      -2.73521873       1.20766978       0.93106510
Zr       8.01268604       2.62667075       0.97357871      -0.23184614       1.48648818       0.49909972
B        9.57418071       3.64709752       2.74089635      -0.41149015       0.23984742      -0.13244575
B        7.87016023       4.50535796       2.72834829       0.90816094       1.15643489      -0.66894114
Zr       7.82991216       2.84752716       4.52835146       1.92243697      -0.87904114      -0.23411488
B        9.40405420       3.84716043       6.46162509       0.45539508      -1.69373915      -1.47027660
B        7.76306299       4.58607721       6.26642810       1.19029864       0.28844564       0.10082067
Zr       7.88511736       2.67451043       8.13164149       0.87327982       1.45651169       1.23731306
B        9.94911787       3.34282137       9.95620497      -1.39267377       2.65915470       0.04667144
B        8.09290194       4.57778240       9.93038496      -0.50446612      -0.41147061      -1.51402932
Zr       6.41762798       5.52639514       0.85895797      -0.86711405      -0.89895254       0.03252420
B        7.81780430       6.34900353       2.57169683       1.05483801      -0.48684198       1.96761048
B        6.29487154       7.16068149       2.68458301       0.09479477       1.78634668      -0.81100667
Zr       6.23156512       5.58282097       4.43529992       1.22366770      -2.20545347      -0.20492566
B        7.84522527       6.42865252       6.20567316       0.59289202      -0.57900703       0.39206829
B        6.37041538       7.40625957       6.29137784      -1.25167421      -1.32045225      -0.82038965