145
Lattice="12.721961437103278 0.0 0.0 -6.360980718551639 11.017536653567367 0.0 0.0 0.0 28.86371332811429" Properties=species:S:1:pos:R:3:forces:R:3 energy=-216225.64176186413 free_energy=-216225.64176186413 stress="0.003634985998574629 -0.0012514488295168526 0.0009236665608906485 -0.0012514488295168526 0.0034899170953731156 -0.0009732470721114188 0.0009236665608906485 -0.0009732470721114188 0.009499258686853527" pbc="T T T"
Zr      -0.06171367       0.22240971       0.97336214       0.51588799      -1.48661442      -0.48153831
B        1.64394411       1.01618682       2.71288382      -0.36246512      -0.55874057      -0.92572055
B        0.04779941       1.88439022       2.66973493      -0.49779154       0.42534274       0.10644676
Zr       0.01580405      -0.03681105       4.40541899       0.11009567       1.22368775       0.42812261
B        1.62349852       0.91772738       6.09915993      -1.19553777      -0.85647920       1.56872594
B       -0.01052555       1.87402215       6.34921641      -0.05031366      -0.80166997      -1.14171996
Zr      -0.02012456      -0.01764870       7.91407437      -0.71933219      -0.69299612       0.52684552
B        1.35688014       0.78927117       9.87531972       2.62898615       0.29427818       0.38159362
B       -0.11984432       0.79321398      10.44800854      -0.18797798       0.51243320      -1.01344762
Zr      -1.78533154       2.89125859       1.09886119       2.32657377      -1.42450659      -1.88718406
B       -0.04194819       3.78073350       2.62806213       0.33159235      -1.04982359       0.39242002
B       -1.72388007       4.62733148       2.70400386       1.65514766       0.81280696       0.07524231
Zr      -1.54098979       2.77821429       4.42940108      -0.34766714      -0.44215904       0.87463453
B        0.03789330       3.62900513       6.36650718      -0.28252567       0.31360388      -1.18774887
B       -1.58671636       4.62236657       6.29607118       0.26213888      -0.73572168      -0.26729266
Zr      -1.63210478       2.71273038       8.16330867       1.09587102       1.37043732      -0.46212185
B        0.14172001       3.89967504       9.90878430      -1.39604191       1.59169258      -0.28297536
B       -1.42853777       4.73513938       9.87635422      -0.31892092      -1.53931946      -0.51307906
Zr      -3.19342698       5.48941397       0.87453229      -0.45872697       0.70090740       1.02819650
B       -1.63367734       6.47311917       2.65612724      -0.23493455      -0.06620231      -0.26477400
B       -3.25924444       7.45416685       2.59529353       2.15354547      -0.11338205       0.02546446
Zr      -3.15093757       5.39513456       4.59367605      -0.81046082       2.56817056      -2.39638462
B       -1.72270646       6.39662680       6.19151803       2.10057020       0.71858760       0.45653433
B       -3.20925670       7.37602908       6.34572645       0.01091408       0.07300107      -1.42330229
Zr      -3.27361574       5.56166192       7.88930974       3.51471808      -0.78740677       1.38563383
B       -1.32938238       6.50773471       9.64555470      -1.19787568      -1.50648725       0.66010631
B       -2.96405461       7.17415832       9.73854293      -0.55362664       1.80784779       0.02747224
Zr      -4.71604611       8.45306321       0.86447650      -0.11771410      -1.45131472      -0.59068267
B       -3.11458970       9.27124655       2.47779794      -0.58309534       0.07774502       1.26566538
B       -4.67025292      10.21386268       2.41036585      -0.96063536       0.01546519       2.10395043
Zr      -4.70778195       8.34311855       4.40954930      -0.55309134      -0.16345043      -0.10592636
B       -3.08016334       9.15760520       6.24659883      -1.82377012       0.04083992       0.09562138
B       -4.68751541      10.03420689       6.25700895      -0.54543640       1.07601387      -0.23442444
Zr      -4.82461649       8.27701981       8.16775295       1.37229186       0.09880827      -0.46303717
B       -3.20716660       9.22722472       9.72378902       1.18250562      -1.07917196       0.55740000
B       -4.93045324      10.09348982       9.84092581      -0.06401353      -0.66088793      -0.91745163
Zr       3.17227742       0.16301467       0.91834451       0.97208397      -0.03412034      -0.23694747
B        4.98297412       0.84506754       2.71934362      -2.45094908       0.91043946      -0.78648940
B        3.23035171       1.81989410       2.74003743       0.17656768       1.32873223      -0.91970391
Zr       3.20289285       0.09509614       4.44419566       0.67917515      -1.77002661      -0.21017097
B        4.72297187       0.88057055       6.29211196       0.38236443       0.16718855       0.38287840
B        3.08698678       1.74064264       6.27220833       2.02663504       0.72157470       0.27873689
Zr       3.11684454       0.00034911       8.25060431       0.26727543      -0.21855997      -0.59080377
B        4.69503161       0.97505571       9.89953949       0.53525843      -1.29518010       0.05481361
B        2.94965106       1.86144176       9.89844375       1.36121272      -0.27077599      -0.50280519
Zr       1.61029922       2.78273199       0.85344745      -0.22096523       0.46603405       1.19022433
B        3.15539238       3.74155631       2.65535839       0.74661313      -1.10909960      -0.10859800
B        1.57674960       4.68659230       2.59968656      -0.27262795      -1.08361045       0.27481519
Zr       1.62075590       2.77357690       4.48741708      -0.50741621       0.17827258      -0.67631866
B        3.18218804       3.53835372       6.34747536       0.47181440       0.99688869      -0.53318303
B        1.69202618       4.50983899       6.27019309      -0.79756417       0.36603664      -0.18592007
Zr       1.61893911       2.62116135       8.02202271      -1.07940516       1.48889550       0.49588327
B        3.13272340       3.61145016       9.85916812      -1.22949716      -0.87513847      -1.07893953
B        1.66764670       4.45291182       9.93534181       0.01257732       0.71077273      -0.20784181
Zr      -0.13787660       5.49221451       0.93949192       0.67818348       0.03113837      -0.15515605
B        1.50896912       6.44428667       2.56102780       0.68815010      -0.45413189       1.05465469
B       -0.00431405       7.34794577       2.50802284      -0.66925584       0.18417249       1.39075109
Zr      -0.02058232       5.58608621       4.39034856       0.13641605      -1.07797100       0.82724319
B        1.60513084       6.47401031       6.32051528      -0.20284487      -0.04882268      -1.16175425
B       -0.04341577       7.37373311       6.19567655       0.46981640      -0.38861839       0.24729384
Zr       0.19803709       5.44153232       7.87553467      -2.92853098       1.16285494       1.59747679
B        1.53691198       6.37808493      10.01734947       1.23431001      -0.21858928      -1.16212912
B        0.20373993       7.24823162       9.64212050      -2.70032244       0.38901459       0.87512638
Zr      -1.54697293       8.33854780       0.97683077      -0.15846017      -0.71581903      -0.90578473
B        0.05833321       9.23635219       2.63922833      -0.74141128      -1.12330134      -0.40221027
B       -1.56114461      10.13715885       2.52700092       0.55775995      -0.04868384       1.00979742
Zr      -1.65971540       8.25989933       4.42690129       1.25321250       0.36479943      -0.17685462
B       -0.00557856       9.26884874       6.17894997       0.41851363      -1.74177018       1.21388954
B       -1.60246321       9.95644233       6.33185470       0.79266879       2.84407230      -0.82617309
Zr      -1.50328210       8.23341312       7.94604770      -1.26427133      -0.47473749       1.72954330
B       -0.15406070       9.07473107       9.75336668       1.09165055       1.02736397       0.52417209
B       -1.59675446      10.14571055       9.94285686      -0.67099519      -0.95891272      -0.88157137
Zr       6.39886752      -0.00470491       0.81354528       0.17276451       0.12596220       1.13526854
B        7.98304421       0.90240367       2.53743603       0.06280794      -0.27790771       0.96500212
B        6.37876219       1.79435058       2.73895628       0.88457853       0.33219321      -0.82531589
Zr       6.41651086      -0.05403551       4.54826503      -1.06776294       0.91798359      -1.27015093
B        7.90278192       0.98225203       6.19426719       1.04280987      -1.01551967       1.54687748
B        6.39945631       2.00344896       6.42748798      -0.03675212      -2.07369909      -1.00001206
Zr       6.39499256      -0.02846359       8.22684931      -1.50013045       0.49267710      -1.68727051
B        7.88257873       0.75620425       9.77369135       0.62383704       1.87668985       1.07010728
B        6.40654906       1.81837728       9.92702954       0.06722483      -0.34793428      -0.97541689
Zr       4.77685301       2.79772863       0.78687391       0.31626574      -0.18289671       2.00242888
B        6.42675753       3.70903892       2.82602655      -0.60504331      -0.80392379      -1.08198757
B        4.87112906       4.57108359       2.72819117      -0.93547480       0.05835967      -0.35190920
Zr       4.86317796       2.77184464       4.51578959      -1.18386419      -0.60621985       0.11026562
B        6.49487292       3.72982378       6.29204994      -1.79318942       0.26114669       0.14018272
B        4.69488153       4.52599421       6.28525778       0.80209188       0.76081025       0.25970482
Zr       4.72062580       2.53953438       8.21779149       0.34427303       2.91686486      -0.96440126
B        6.42090118       3.66462755       9.93503529      -0.00823627      -0.21128143       0.77891365
B        4.61029889       4.58248992       9.89917639      -1.74768192       2.17939045      -3.21056326
Zr       3.22841940       5.49762303       0.91355404      -0.13199478      -0.54400969       0.66145383
B        4.81658043       6.34563369       2.64881555      -0.16625216       0.96992707       0.37190184
B        3.04312945       7.34765678       2.65574253       2.01946629      -0.81239532       0.36818994
Zr       3.19093453       5.43017115       4.43127459      -0.25473590       1.26579368       0.26892068
B        4.53810019       6.38462929       6.26998894       2.54759762       0.06852658      -0.34880331
B        3.11820073       7.36615932       6.13858638       0.19692748       0.05738111       1.05559854
Zr       3.11243056       5.61264192       8.08925761       1.48806195      -2.04588412       1.00772923
B        4.62021876       6.50464168       9.74423482       2.23155531       0.35846886       0.09842209
B        3.25006388       7.31858638      10.10980450      -1.33144757       0.54827618      -1.42622332
Zr       1.65102451       8.04255933       0.89339043      -0.67034136       2.44268144      -0.55008135
B        3.27111184       9.10552699       2.78412908      -1.23878759       0.35839018      -1.56569358
B        1.63152902       9.94154923       2.61204875      -0.06595625       1.55993560       0.04221160
Zr       1.54070835       8.27348215       4.46202135       0.36369745      -0.50322017      -0.47419961
B        3.22093647       9.19293094       6.20546087      -1.13124348       0.02903855       0.19986522
B        1.64961084      10.10241547       6.25117861      -1.24482274       0.23482271       0.32943725
Zr       1.52121283       8.35121685       8.21827978       2.22355635      -1.44990292      -2.03180527
B        3.25397007       9.16657836       9.87898058      -3.21152151      -1.70909892       0.19487574
B        1.49503633       9.91469194       9.85313565       0.79103717       1.85838282      -0.02922136
Zr       9.43862724      -0.14263979       0.89428797       1.14155181       0.72892292       0.69764545
B       11.11138110       0.86248807       2.65706452       0.27040241       0.75985277       0.15301149
B        9.66592801       1.81508067       2.68733522      -2.27697513      -0.22390323       0.18340527
Zr       9.48203024      -0.04801564       4.44578891       1.17685228       0.46475595      -0.15389826
B       11.06808000       0.91890727       6.24527664       0.77820376       0.17742566       0.04156497
B        9.59024981       1.78419554       6.21311293      -1.18140930       1.03655952       0.55105914
Zr       9.45609168      -0.01289728       8.13827329       1.17015893       0.52082091       0.19672950
B       11.17217771       0.81501916       9.75235129      -1.98054313      -0.63412171       0.60030039
B        9.64326307       1.82327757       9.77272991      -0.86136944      -0.37991726       0.14194958
Zr       7.91932057       2.82909960       1.00469753       0.19401544      -0.90381141       0.26888803
B        9.55868889       3.70801656       2.76858059      -1.34567940      -0.54177874      -0.18607665
B        7.94567863       4.55255333       2.72175570       0.74427446       0.83892319       0.19381670
Zr       7.96423505       2.55543619       4.46108074       0.33667156       3.38845788      -0.08296050
B        9.52839064       3.71788640       6.20797581       0.56493873      -1.11616936       0.96420251
B        7.92241201       4.74500008       6.24435814       0.43709628      -1.66237889       0.24287772
Zr       8.04155485       2.91279277       8.09214985      -1.18456945      -1.91901586       1.41962870
B        9.69580431       3.71994918      10.01969433      -0.41999073       0.55337031      -1.52005624
B        8.16881547       4.67173388       9.95816578      -0.25472228      -0.20541752      -0.55800755
Zr       6.35586136       5.45244431       1.00003289       0.66368940       0.66463274       0.26771432
B        8.06785130       6.58600629       2.79505739      -1.96368621      -1.81429303      -1.43842372
B        6.49510788       7.44400170       2.53668813      -0.73835038      -0.61134071       0.77009116
Zr       6.43070306       5.53413377       4.54027585      -1.36608265       0.07485793      -1.35958675
B        7.89503807       6.54326165       6.15772927       0.68387539      -0.12209603       1.01630694
B        6.32130275       7.45575676       6.10993156       0.44780698      -0.95403765       1.22573769
Zr       6.64123429       5.67963085       8.14342495      -4.43641794      -1.54690627       0.82862130
B        8.26426105       6.42560129       9.86334570      -0.55939003      -0.96146403      -0.52205581
B        6.08142900       7.50405728       9.79653961       0.25069233      -2.43604697      -0.38113288
Zr       4.68733434       8.10661758       0.93046197       1.03289647       1.26634775       0.51331920
B        6.52173761       9.26698425       2.47912521      -1.75598915      -0.24162456       1.10325034
B        4.76815230      10.10873484       2.71765252       0.43613674      -0.55417763      -1.00787887
Zr       4.77354738       8.24165587       4.46058389       0.03938724       0.07902003      -0.56480606
B        6.40384045       9.22673091       6.15726266      -0.40601858      -0.29204698       0.49738402
B        4.66817840      10.18384491       6.31007566       1.15773124      -0.71099281      -1.05746850
Zr       4.74775684       8.34277883       7.89724332      -0.01763494      -1.29763628      -0.17814660
B        6.30706203       9.06365889       9.61019189      -0.72234526       2.95297703       1.19217194
B        4.65416555       9.83741887       9.86915947       3.17233661       2.26983415      -0.83018761
O        5.29889448       4.16168506      10.89254869       3.86251634      -1.47310816       3.11749832
145
Lattice="12.721961437103278 0.0 0.0 -6.360980718551639 11.017536653567367 0.0 0.0 0.0 28.86371332811429" Properties=species:S:1:pos:R:3:forces:R:3 energy=-216224.130582015 free_energy=-216224.130582015 stress="0.0008952036748194654 -0.002491879767651312 -0.0005821119280364524 -0.002491879767651312 0.000313091746783013 0.002012601492517198 -0.0005821119280364524 0.002012601492517198 0.005868863476354895" pbc="T T T"
Zr      -0.16710248      -0.00292483       0.91621490       1.31896307       0.14296465       1.03402364
B        1.56817141       0.94546678       2.69933107       0.19859047      -0.00689956      -0.48392635
B        0.05838893       1.89388109       2.68384035      -1.16543941      -1.11821262      -0.44797719
Zr      -0.07839248      -0.01291912       4.39026374       1.50150188      -0.08002584       1.25912218
B        1.70412409       0.77281267       6.17399217      -0.88546890       2.09859816       0.74312440
B        0.20439692       1.71946120       6.54455015      -2.06874946       0.22754931      -2.49229679
Zr      -0.04528829      -0.14692669       8.32560487       2.19526496       1.83409438      -0.33836592
B        1.61083227       1.07373017       9.92768288       0.59605293      -1.76003504      -0.42818072
B        0.03913595       1.79316362       9.73190542      -0.23680349       1.75935344       0.63707643
Zr      -1.45378208       2.63033420       0.79289299      -0.93942145       0.77952094       1.35338705
B       -0.09438273       3.66889927       2.64782705       2.92963141      -0.74774313      -0.08432190
B       -1.52474954       4.41857951       2.64466482      -1.80296629       2.29416347      -0.50677523
Zr      -1.53982844       2.80351064       4.47212917      -0.89170537      -2.12124264       0.45026110
B       -0.12426889       3.65342741       6.31671010       2.15996474      -0.35408101      -0.55307746
B       -1.64348399       4.58522951       6.36781214      -0.05463980      -0.59367775      -0.97165819
Zr      -1.63831824       2.68493532       7.91488903       1.30726995       0.56202464      -0.09283688
B       -0.07880037       3.67576767      10.00121273       1.29763474      -1.28758687      -1.41126387
B       -1.57170090       4.33322394       9.89977576      -0.59005841       0.84624518       0.09821460
Zr      -3.20832798       5.55439835       0.92539069       0.91514432      -0.43418605       0.30735199
B       -1.54817192       6.39505755       2.59205744      -0.38845538       0.52095152       0.07178057
B       -3.06989405       7.50118513       2.64548683      -1.45487132      -1.93441549      -0.27111974
Zr      -3.09576441       5.30754639       4.46715045      -1.17126707       3.65617786      -0.38009312
B       -1.70637767       6.31166613       6.19177501       1.08605043       1.86569993       0.89896462
B       -3.16801201       7.34764378       6.22803641      -0.09725043      -0.86197339       0.06585367
Zr      -3.09542768       5.45760537       8.20816136      -0.99737025       0.55932164       0.34796462
B       -1.48939516       6.73239555       9.79444623      -2.60806226      -2.76091562       0.46678275
B       -3.01044047       7.41691364       9.76933393      -2.40772472       0.12332991       0.44481396
Zr      -4.80587715       8.31531617       0.97862617       0.75891663      -0.19438645      -0.00218055
B       -3.19997609       9.28921672       2.57817720       0.07748688      -0.84469018       0.91906396
B       -4.87191816      10.16188317       2.65770593       0.89087259      -0.36892374      -0.07081307
Zr      -4.79111330       8.21414836       4.41382229       0.83841360       0.62353083      -0.01424365
B       -3.13008448       9.15446833       6.15989004      -0.30720260      -0.74852269       0.47607523
B       -4.66303724      10.07547954       6.32163013      -0.96620308      -0.81408351      -0.94834652
Zr      -4.76920065       8.18016335       8.11760385       1.76052021       1.23909817      -0.29467516
B       -3.18716206       9.37341263       9.81737589       0.47085306      -0.55561591       0.12389606
B       -4.64648942      10.21710392      10.09409009       0.58900785       0.14464049      -1.92235650
Zr       3.19192260       0.02096633       0.96958067      -0.20931634       0.77346882       0.10267649
B        4.73374176       0.99582812       2.80110052       0.54489904      -1.00904949      -0.57029793
B        3.18185524       1.89944241       2.80229449       0.45336751      -0.39762522      -0.91122004
Zr       3.21378985       0.00508643       4.41718329      -0.61540691      -0.45974076       0.84145804
B        4.85498774       0.95071281       6.37354092      -0.52390958       0.06860012      -1.24292860
B        3.32889308       1.80764574       6.23461880      -1.63042727       0.32962262       0.24258333
Zr       3.23242131      -0.02870459       7.86949508       0.40404526       0.61612091       2.27989873
B        4.77224718       0.94225345       9.94774051       0.10509873       1.03638186      -0.87738278
B        3.28493868       1.74575867       9.91640995      -1.04230465       0.71317131      -0.99751295
Zr       1.68472926       2.73227329       0.94979967      -0.46895482       0.30169942       0.71285455
B        3.42131581       3.71401160       2.63406505      -4.00125975      -0.90711836       1.07074877
B        1.58915992       4.53470058       2.83389287       0.24331506       0.98616719      -1.70077780
Zr       1.51294056       2.71034172       4.38575210       1.42243351       0.54984275       2.20389332
B        3.19820085       3.77072685       6.26080489      -0.36232577      -2.00193805      -1.11192730
B        1.52857083       4.59672353       6.15396971      -0.60385006      -1.11154832       0.44806126
Zr       1.69642640       2.77238779       8.08985619      -0.94111400      -0.68266131       0.84808841
B        3.19444757       3.81388872       9.63722010      -1.72683953      -0.10119605       0.23002452
B        1.62265603       4.69512148       9.78038667       0.57771557      -1.74520569      -0.31473182
Zr       0.07270142       5.49854690       0.94153401      -0.38981086      -0.27081841       0.29761779
B        1.66467962       6.38588808       2.71657129      -1.35439004       0.30198995      -0.22207698
B       -0.00288544       7.31139792       2.49407908       0.34499242       0.43147765       1.42285517
Zr      -0.06374691       5.58987199       4.44754459       0.67427720      -1.44170187      -0.56238614
B        1.42608031       6.31110598       6.15475687       0.80958176       2.26482204       0.60668856
B        0.01782823       7.40074959       6.30698905      -1.17492215      -1.22897857      -1.04527453
Zr      -0.00274356       5.35320557       8.15936770      -1.65762106       1.17702686      -1.11933490
B        1.50096012       6.33962380       9.53541155       1.31212727       2.45451649       1.24712593
B       -0.11634067       7.33261966       9.52522620       4.01184010       0.65528009       0.87452397
Zr      -1.67608920       8.34339216       0.91979439       1.02904882      -0.22595420       0.02664588
B        0.09414876       9.33644579       2.86211715      -1.41262604      -1.21431325      -2.04037399
B       -1.62203255      10.15610520       2.60926132       0.79589141       0.24500633       0.77794203
Zr      -1.53460799       8.28061161       4.32454025      -0.79588421      -0.69810079       1.28402615
B       -0.06031554       9.24301168       6.41833780       1.93996213      -1.57064476      -1.17071094
B       -1.53729860       9.87361117       6.19191456      -1.65905214       2.78530099       0.50291883
Zr      -1.62259915       8.30183966       8.13656447      -0.02007003       1.80952286      -1.30614869
B        0.02345541       9.40364586       9.89959342       0.32097343      -0.48528569      -0.80592437
B       -1.49037905      10.25684140       9.82765658      -0.98452939      -1.25972845      -0.17337797
Zr       6.43625519       0.10807614       1.07323768      -0.68862884      -0.96000698       0.01736934
B        7.98863789       0.92464838       2.76088671      -0.27255776      -0.41155957      -0.32073432
B        6.34208290       1.84507171       2.83703078       0.69632621       0.11501676      -0.87688579
Zr       6.31632592       0.00280770       4.61308268       1.28627252      -0.07872872      -1.69594644
B        7.96963119       0.80868624       6.23261797       0.75448842       0.89815190       0.95084691
B        6.52479122       1.73358172       6.32099176      -1.91033916       1.48648381      -0.42923796
Zr       6.26305257       0.15666816       8.06247503       0.72286411      -2.51913242       0.11016791
B        7.89761887       0.68178054       9.66733203      -0.57642282       2.28644862       1.56079434
B        6.30748878       1.88917821       9.83291784       0.06294009      -0.66573780      -0.78552087
Zr       4.81105349       2.68059384       1.12485912       0.25027170       0.50594579      -1.41334621
B        6.44089364       3.72760289       2.62901545      -0.16443002      -0.33207649       0.56451167
B        4.73947667       4.68070202       2.55197252       2.04506728      -0.00755416       0.92115530
Zr       4.81893613       2.71500670       4.55788651      -0.04304027       1.03830067      -0.86802397
B        6.40404993       3.57500619       6.43065007       0.32433669       1.14713007      -1.83494516
B        4.84102475       4.54917602       6.12976261      -0.49283394       0.99184315       1.13171759
Zr       4.71480168       2.93063760       8.00112194       0.40148881      -2.31354624       1.17365717
B        6.43253185       3.79449049       9.83205684      -0.93734605      -0.84878826       1.76633964
B        4.56452767       4.82554506       9.93637999       0.73494135       0.01618458       0.34279593
Zr       3.05945895       5.57133834       1.03177672       1.19501533      -1.05521930      -0.84692550
B        4.73914061       6.44389578       2.69039087       0.39470702      -0.04950351      -0.72859459
B        3.18774471       7.30105570       2.60146921      -0.09983722       0.21399343       0.61318574
Zr       3.23028545       5.50459090       4.55939187      -0.69085902       0.09998917      -2.51047038
B        4.75655997       6.50901816       6.20394078       0.82420337      -0.98154974       0.27101073
B        3.12141731       7.34673792       6.17430784       0.40948366       0.25874117       0.48105032
Zr       2.97092178       5.50588951       7.72527533       3.67516854       1.44721432       3.56825076
B        4.76745852       6.64382901       9.64949128      -0.73837943      -0.94006191       0.08425505
B        3.17987940       7.21140530       9.82829733      -0.45446974       0.62275410      -0.80895647
Zr       1.46872681       8.35136349       0.89467834       0.63301408      -0.30694601       0.67751705
B        3.12413671       9.00297569       2.47251444       0.79675402       2.16117881       1.29199605
B        1.68404979      10.05581209       2.86284024      -0.79699467       1.13976669      -2.01767321
Zr       1.59159852       8.26953881       4.40385083       0.01626531      -0.71679168       1.31448112
B        3.14490564       9.14100621       6.34312691       0.30180894       0.20984676      -0.45143301
B        1.63088749      10.04368514       6.31000482      -0.74150204       0.77504979       0.01650623
Zr       1.46225166       8.26471289       7.99157255       1.92479750      -0.56245093       2.25152841
B        3.24061277       9.26820386      10.07248635      -0.85577883      -1.33683506      -1.02437249
B        1.70007819      10.05195283       9.97742452      -1.55481396      -0.38144758      -0.42460175
Zr       9.48140194       0.09910229       0.85208619       0.36794954      -0.95964317       1.43922462
B       11.07815021       0.83843493       2.79335569      -0.22017282       0.83415663      -1.68015061
B        9.50440928       1.84491126       2.62605642       1.12481290      -0.66801245       0.47842239
Zr       9.55951779      -0.06255506       4.54689276      -0.38870683       0.78183365      -0.64208159
B       11.11305788       0.85111472       6.17673789       0.60653712       0.63327402       1.63401602
B        9.51647164       1.89428468       6.31593163       0.04475545      -1.70072483      -0.53396979
Zr       9.58279626       0.03072958       8.31541504      -0.59916782      -0.45586225      -2.62899798
B       11.19662781       1.08714602       9.62466056       0.04839305      -1.21090217       1.49087885
B        9.78566723       1.99363313       9.80836389      -1.39073541       0.07617562       0.36709260
Zr       7.96795936       2.75189545       0.98774745      -0.04299964       0.07965252       0.20852238
B        9.61530487       3.60151967       2.61771014       0.10342237       0.32870500       0.03664053
B        8.18508736       4.60418831       2.74123905      -2.48109630      -0.44755296      -1.16395768
Zr       8.01364415       2.69251814       4.45131908      -0.65327823       0.72884398       0.46648579
B        9.43612242       3.67403388       6.20637946       0.99603431      -0.33746192       1.13630830
B        7.90357174       4.60383511       6.22030456       0.50586095      -0.57500357       0.54583697
Zr       7.87539040       2.60672741       8.18682351       1.52519896       2.56097481       1.20683237
B        9.56575810       3.71788970      10.01708276      -0.24944020      -0.72145643      -1.18303604
B        7.92390621       4.71526110       9.81555073       0.97975537       0.16739810      -0.25022722
Zr       6.40731154       5.49530277       0.83718265      -0.07255936      -0.46843777       0.62896408
B        8.00408810       6.38162827       2.61962582       0.06025046       0.61174232       0.11884847
B        6.33119806       7.18803473       2.44579495       0.52146472       1.69860625       1.78076302
Zr       6.39828524       5.52150806       4.36740126      -0.01587013      -0.32067493       0.94153875
B        7.99404992       6.40728165       6.26219059       0.38736240      -0.51349121      -0.14179120
B        6.52362221       7.26154271       6.22364683      -2.25139343       1.49894157       0.21824424